# vtk DataFile Version 2.0
AOOM data
ASCII
DATASET POLYDATA
POINTS 22803 float
3.5006 7.78977 14.8903
3.32456 6.99889 15.3512
3.65321 7.04504 14.977
4.21161 7.39799 14.5909
4.44463 6.50709 15.1587
3.92906 6.29167 15.8606
3.28204 6.53683 16.0076
2.53619 6.90384 16.0477
2.69617 7.43359 15.4629
2.1458 7.6719 16.0435
2.54355 8.17832 15.3762
3.21919 8.97501 15.3225
3.78974 8.72403 14.8788
4.19429 8.25914 14.6732
4.8334 7.84358 14.6077
5.00369 7.12466 14.8067
5.79094 7.70958 14.899
5.96123 6.99066 15.098
5.54513 5.99699 15.5401
4.73144 5.84247 16.1005
4.15903 5.50232 16.8149
3.32509 5.89828 16.7013
2.59457 6.14347 16.5246
1.93779 6.53322 16.4778
1.24494 7.01903 16.246
1.27841 8.06698 16.2783
2.12848 8.53304 16.1257
2.6667 8.89867 15.6028
2.9686 9.38488 15.9835
3.8601 9.37471 15.4447
4.50662 8.84908 14.9824
5.14572 8.43351 14.9168
5.9332 8.38404 15.2311
6.45631 7.68925 15.16
6.68784 6.61215 14.6685
6.17682 6.27931 15.1456
6.22364 5.39124 15.0596
5.54641 5.49121 16.1918
4.99026 5.2179 16.6695
4.20421 4.68713 17.3336
3.44455 4.99643 17.227
2.53051 5.47185 17.0584
2.07221 5.70251 16.8449
1.28013 5.97584 16.6292
0.425691 6.31226 16.5364
0.544141 6.92689 16.2816
-0.22054 7.34824 16.6035
-0.050963 8.08148 16.3341
-1.05495 7.84626 16.4267
-0.203696 8.61944 16.0145
0.570827 8.52707 16.3509
0.350172 9.30317 16.2439
1.19401 9.05746 16.5471
0.436953 9.90972 16.2651
1.24617 9.82818 16.9196
2.17973 9.3149 16.6824
2.19498 10.1425 17.2434
2.88778 9.8378 16.7045
3.03732 10.7125 16.9798
3.47249 10.2747 16.1296
3.59837 11.2267 16.2652
3.95675 10.8661 15.565
3.83087 9.91407 15.4295
4.52456 10.3834 15.2124
4.54188 9.52229 15.1301
5.13538 10.1586 15.1619
5.30928 9.16492 15.2614
5.89917 10.076 15.3927
6.10595 9.20303 15.6344
6.86098 9.74409 15.6548
7.27368 9.35336 15.8004
6.70211 8.53828 15.5839
7.41653 8.45876 15.8775
7.24379 7.63977 15.4742
8.19259 7.95414 15.798
8.04282 7.09232 15.2212
7.32874 7.01186 14.7907
8.03976 6.62007 14.4913
7.25839 6.36118 14.2247
7.8975 5.94561 14.1592
7.27571 5.50003 14.1424
6.56469 5.89181 14.4418
6.71731 5.14707 14.5285
7.37408 4.75733 14.5753
6.72387 4.69009 15.1422
7.51595 4.41676 15.3579
6.78654 4.58743 15.6657
7.57861 4.3141 15.8815
7.02132 4.46501 16.3835
6.41309 4.96318 16.3953
6.5895 4.75319 17.1742
5.68104 5.14263 16.9898
5.88355 4.68019 17.7896
5.12648 4.84598 17.5061
5.13039 4.17059 18.0253
5.99036 3.87383 18.2596
5.31527 3.39005 18.2414
4.70411 3.72531 17.9796
4.25061 3.09275 18.1203
5.16081 2.65779 17.8808
4.42872 2.51381 17.5789
3.37489 2.58885 18.0489
3.35363 3.64568 18.1499
3.72748 4.12618 17.7118
2.88615 4.64347 17.613
2.75483 3.85567 18.6463
2.04176 4.27882 18.5955
1.83925 4.74126 17.7956
2.06929 5.15786 17.3823
1.19906 4.57814 17.4915
1.40888 5.24033 16.939
1.29177 4.36055 18.2477
0.669105 3.82403 18.1271
0.401806 3.68191 17.2651
0.311404 4.63621 16.687
-0.160806 3.94398 16.4714
-0.331093 4.6629 16.2724
-0.247314 5.51171 16.6825
-1.13429 5.02148 16.2978
-0.914453 5.89871 16.8524
-1.86327 5.58435 16.5287
-1.69052 6.40334 16.932
-0.935488 6.9444 16.9523
-1.8973 7.27631 16.6903
-2.47069 6.43575 16.4285
-2.59015 7.3376 15.9029
-1.89375 7.93766 16.0378
-2.32422 7.99256 15.2388
-2.0033 8.41711 15.2375
-1.31252 8.34183 15.5578
-1.28277 9.06184 14.8934
-0.725594 8.92368 15.6054
-0.685431 9.93624 15.094
-0.373981 9.33836 15.8155
0.010286 10.0679 15.7275
-0.088091 10.8106 15.2947
0.240154 10.7515 15.9833
0.055541 11.593 15.6091
0.39406 11.5328 16.3589
0.638738 10.6796 16.8195
0.708256 12.1298 17.2998
1.42085 11.3269 17.5539
1.41892 10.6472 17.323
2.20097 11.0822 17.4835
2.48147 11.5462 17.7275
3.24527 11.545 17.1082
3.14902 12.0765 17.7961
3.7878 12.3848 17.2744
3.97277 12.0705 16.3719
4.12464 12.4565 16.8963
4.8099 12.5274 16.2989
4.85426 12.1985 15.5792
4.0799 11.5865 15.7917
4.69078 11.4068 15.3503
5.42481 11.9475 15.1355
5.44213 11.0864 15.0532
6.06392 11.532 15.0699
6.38791 10.7174 15.3339
7.14474 11.1825 15.2513
7.339 10.4161 15.5043
8.07447 10.7913 14.974
8.12122 9.91743 15.5036
8.90019 10.0207 14.8175
8.84962 9.42842 15.4291
8.17157 8.99983 15.8979
9.03494 8.5241 15.5344
9.53913 8.92626 14.8205
9.53353 8.0441 14.8126
8.96143 7.65654 15.3472
9.38656 7.27285 14.5596
9.11364 7.015 14.8994
9.53918 6.52811 14.6463
9.26626 6.27027 14.9862
9.92303 5.88052 15.0329
9.28771 5.53694 15.5365
8.63837 5.17622 15.0067
8.53999 5.91892 14.5738
10.0678 5.38908 15.8006
9.29982 4.86942 16.041
8.60193 4.44396 15.9829
8.06487 4.68205 14.8956
8.06778 5.2267 14.3582
9.48835 4.07347 16.2613
8.18468 4.10073 16.3465
8.46343 3.64893 16.0104
7.62286 3.54239 16.5578
7.62668 3.15911 15.8245
8.19723 2.90814 15.3807
7.39904 2.7292 15.5713
7.96959 2.47824 15.1275
7.23818 1.95477 15.3082
6.91751 2.36945 16.0447
6.65012 1.63093 15.7536
6.64804 1.97295 16.2513
6.63872 2.30542 16.9403
5.92728 1.83737 16.5168
5.93277 2.23242 17.5558
6.62861 2.66638 17.6885
7.15141 3.05698 17.1744
7.1326 3.99195 17.2638
6.76232 3.44847 17.9346
6.59662 4.25704 17.8404
6.00916 2.93887 18.1703
5.16964 2.10555 17.2669
5.19172 1.49759 16.0243
4.54151 1.43035 16.5912
4.35837 1.86314 17.0129
3.66467 1.39376 17.23
3.78782 2.11411 17.4567
3.25173 1.86851 17.8222
3.4467 0.610285 17.8541
2.55949 0.999993 18.2491
2.66367 1.54467 18.2676
2.78682 2.26501 18.4943
2.01762 1.59022 18.403
2.16737 2.5375 18.9761
2.92053 3.0471 18.7404
2.14857 3.47246 19.0654
1.47348 2.98869 19.0472
1.2886 3.76922 18.8312
0.775917 3.01766 18.597
1.28545 2.24631 18.7971
0.748011 1.94451 18.2901
0.419535 3.08192 17.8494
0.419766 2.0037 17.6015
0.098912 3.21233 17.146
-0.244468 2.06246 16.8466
-0.442965 2.7639 16.7553
-0.464055 3.33403 16.4828
-1.08546 2.79059 16.3407
-1.27035 3.57113 16.1246
-0.634342 4.05295 16.2838
-1.86063 2.84396 15.9741
-2.00412 3.62075 15.439
-2.04212 4.37251 15.2264
-2.40523 3.56852 14.6733
-2.8326 4.38108 14.6679
-2.66776 5.00572 14.9971
-1.9287 5.01938 15.8414
-2.55612 5.64565 15.7412
-3.02164 5.74545 15.0649
-2.86928 6.50762 15.5923
-3.11187 6.44375 14.5258
-2.69723 7.14936 14.7332
-2.77621 7.0022 13.7421
-2.54634 7.68572 13.9979
-2.66237 8.05501 14.6579
-2.76474 8.47717 14.0813
-2.22404 9.17135 14.6911
-2.98314 9.26863 14.1646
-2.87347 9.70868 14.622
-2.09216 10.1963 14.7599
-1.45305 9.78076 14.6944
-1.35238 10.3917 14.8633
-1.94377 11.0238 15.0417
-1.52584 11.4262 14.916
-0.730588 10.8373 14.88
-2.393 11.9914 15.1859
-1.6993 12.4607 14.9688
-1.06019 12.0452 14.9033
-0.417696 12.0185 15.3179
-0.917931 12.7196 15.2354
-0.347342 12.6691 15.8839
-0.940499 13.1521 15.8662
-0.244588 13.1052 16.3301
0.190769 12.3239 16.2938
0.329395 13.0861 17.0059
-0.167442 13.8187 16.9507
0.665564 13.7705 17.5117
0.899973 12.9183 17.911
1.47337 13.7588 18.1729
1.68015 12.8859 18.4145
1.5074 12.0669 18.0112
2.45621 12.3812 18.335
2.43518 13.4269 18.4349
3.29856 12.9512 18.0714
3.09646 13.8603 18.1087
3.99226 13.4206 17.8543
3.91679 14.3712 18.1297
4.29993 13.996 17.9808
4.98078 13.5867 17.8034
4.90289 12.8664 17.1768
5.61246 13.3089 17.3121
5.62277 12.9408 16.5492
6.14558 13.7072 16.7879
6.11819 13.5073 15.8491
5.49516 12.5982 15.7014
6.23422 13.138 15.1891
6.34339 12.4742 15.2005
6.72789 12.8938 14.6579
7.0944 12.1001 14.8571
7.28629 13.2467 14.2719
7.88277 12.1951 14.1606
7.8228 11.6111 14.7825
8.42226 11.3146 14.1376
8.31824 11.8997 13.7743
8.81191 11.6556 13.2432
8.91593 11.0704 13.6064
8.66297 10.5354 14.3748
9.70389 10.4351 13.5505
9.50449 9.75171 14.2061
10.4484 9.82551 13.6043
9.96021 9.07024 14.1252
10.6812 8.82938 13.9396
10.1228 8.47642 14.3257
10.736 7.88622 14.1313
10.0803 7.74222 14.3425
10.3369 6.88927 14.1943
11.3683 6.62415 14.3442
10.4353 6.14657 14.6272
11.3344 5.35233 14.8158
10.852 5.51337 15.2606
11.4629 4.72274 15.5355
10.795 4.95758 15.8524
11.0078 4.13539 16.0567
10.1768 4.5668 16.2799
10.1959 3.61338 16.1888
10.8366 3.26157 15.7814
10.118 2.893 15.5622
9.15472 3.24689 15.7705
10.718 2.41731 15.0469
10.0477 2.24232 14.9962
10.5742 1.5096 14.4127
9.89781 1.58331 14.5984
9.25378 1.90414 14.9788
9.17588 1.18375 14.3522
8.37895 1.53318 14.7638
8.6087 2.06267 15.062
7.80873 1.70379 14.8644
7.45639 1.4551 14.4341
7.81369 1.29127 13.9907
7.12524 1.25052 13.6593
6.44216 1.17239 14.215
6.66023 1.26997 15.0054
5.81189 0.988889 14.716
5.95429 1.19697 15.6209
5.21555 1.04556 15.2844
4.77371 0.991455 14.9896
4.55082 1.09788 15.9021
4.22479 0.726161 15.452
4.06929 0.738127 16.3756
3.94884 0.085922 15.9648
3.65129 0.231996 15.3409
3.42142 -0.451522 15.0851
3.52013 0.040339 14.5074
3.53745 -0.820814 14.4251
3.59205 -1.32413 14.8908
3.97307 -1.34252 15.8012
4.04722 -0.656781 16.3977
4.22848 -0.463592 17.076
3.94285 0.370744 17.1396
4.01951 -0.115569 17.9486
4.40063 -0.634479 17.9296
4.25429 -0.237992 18.6665
3.45326 0.153304 18.4678
3.63729 -0.070919 19.2224
2.72686 -0.263567 18.9855
2.72978 0.281075 18.4481
2.03608 -0.188296 18.6652
1.9377 0.554407 18.2323
1.3793 0.201451 18.6184
1.00589 0.983929 18.5748
0.992269 0.212811 19.0638
-0.075703 0.576217 18.7157
0.518144 1.261 18.0343
-0.206463 0.680682 17.9198
-0.099268 1.31562 17.3327
-0.89864 0.766699 17.0981
-0.630997 2.02152 16.5052
-1.10321 1.3293 16.2896
-1.27349 2.04821 16.0905
-1.89528 1.60263 16.0738
-1.79691 0.859926 16.5066
-2.45368 1.24967 16.4599
-2.59987 2.29963 15.7415
-3.22738 2.10027 16.3745
-3.50215 1.95495 15.3803
-2.95323 2.22024 14.918
-2.37972 2.71441 15.029
-2.95031 2.76488 14.3805
-3.64401 2.29551 14.5976
-3.74239 3.03822 14.1648
-3.1206 3.4838 14.1815
-3.75971 3.89937 14.247
-4.4534 3.43 14.4641
-4.61444 4.46144 14.4554
-4.05744 4.51888 14.4189
-3.43565 4.96446 14.4356
-4.07476 5.38003 14.5011
-3.48272 5.73542 14.6916
-5.50234 3.91253 14.4891
-5.57625 4.79335 14.1933
-4.37256 5.46979 14.0761
-5.69946 5.49417 13.7585
-5.08244 6.41724 12.9813
-4.08827 6.43979 13.2173
-4.09118 5.89515 13.7547
-3.34971 6.50803 13.6311
-3.3468 7.05268 13.0937
-4.38772 7.08884 12.9051
-3.51708 7.77159 12.8946
-2.87459 7.7449 13.3093
-3.12841 8.56326 13.4277
-3.9126 8.32571 12.5833
-4.02807 9.15392 12.8237
-3.62865 9.26441 13.3452
-3.95772 9.80459 13.3897
-3.5763 9.75164 14.1469
-4.23301 10.2864 14.1272
[...]
POINT_DATA 22803
SCALARS ambient_occlusion float 2
LOOKUP_TABLE default
0.521484 0.546035
0.53125 0.545882
0.503125 0.545161
0.539063 0.545041
0.546875 0.543624
0.589286 0.543499
0.609375 0.545166
0.640625 0.546473
0.503125 0.546778
0.674107 0.546926
0.507813 0.546819
0.557292 0.545918
0.5625 0.545165
0.559896 0.544945
0.559375 0.544585
0.559896 0.544009
0.653646 0.543893
0.578125 0.543423
0.535714 0.541697
0.596354 0.540347
0.703125 0.539038
0.684896 0.542743
0.705729 0.545319
0.744792 0.546507
0.75 0.546251
0.747768 0.54639
0.660714 0.54685
0.550781 0.546499
0.591797 0.545267
0.609375 0.544041
0.617188 0.543539
0.619792 0.543635
0.648438 0.542529
0.575893 0.543664
0.466146 0.543442
0.478125 0.542196
0.421875 0.539144
0.549479 0.537018
0.583333 0.535225
0.703125 0.532148
0.75 0.538171
0.742188 0.542968
0.71875 0.54568
0.716518 0.546093
0.720982 0.544239
0.715625 0.545256
0.734375 0.543411
0.747396 0.544414
0.689732 0.540703
0.654018 0.543291
0.74375 0.545734
0.661458 0.546061
0.720982 0.547144
0.578125 0.548078
0.723958 0.548154
0.723958 0.546872
0.773438 0.546924
0.659375 0.545451
0.658854 0.544387
0.544271 0.542829
0.554688 0.540298
0.536458 0.538878
0.588542 0.541834
0.611979 0.537911
0.666667 0.541199
0.615625 0.538062
0.595982 0.540932
0.611979 0.536782
0.643229 0.539783
0.709375 0.536409
0.75 0.539332
0.679688 0.542163
0.7625 0.542659
0.643229 0.544173
0.770833 0.544919
0.564732 0.546092
0.429688 0.544492
0.322917 0.544765
0.367188 0.54346
0.315625 0.54313
0.369792 0.541547
0.388021 0.541871
0.353125 0.539826
0.364583 0.538628
0.382813 0.536613
0.359375 0.535163
0.41875 0.532555
0.440104 0.530553
0.484375 0.526465
0.473214 0.532839
0.554688 0.525249
0.570313 0.531094
0.744792 0.524796
0.646875 0.529854
0.776042 0.524638
0.872396 0.517563
0.807292 0.516976
0.771875 0.52505
0.732143 0.519296
0.632813 0.506022
0.588542 0.505472
0.694196 0.519256
0.671875 0.529904
0.700521 0.530914
0.683594 0.539026
0.728125 0.536907
0.742188 0.541914
0.63125 0.543833
0.674479 0.544459
0.575893 0.546414
0.65625 0.546285
0.634375 0.545175
0.614583 0.547134
0.601563 0.548233
0.587054 0.546679
0.559896 0.547405
0.528125 0.545146
0.664063 0.544322
0.59375 0.540608
0.723958 0.541076
0.617188 0.536542
0.840625 0.538033
0.815104 0.540987
0.752604 0.536844
0.648438 0.53352
0.585938 0.531146
0.614583 0.535398
0.578125 0.529623
0.596875 0.534107
0.515625 0.538876
0.528646 0.537154
0.55 0.541389
0.472656 0.542424
0.590625 0.544153
0.473958 0.546458
0.380208 0.547398
0.411458 0.54925
0.393229 0.550762
0.415625 0.551467
0.602679 0.549946
0.511161 0.552755
0.700521 0.549801
0.784375 0.548554
0.729167 0.546923
0.747396 0.547873
0.649554 0.543047
0.7125 0.545392
0.613839 0.539725
0.497768 0.536261
0.507813 0.534419
0.471354 0.529835
0.481771 0.530862
0.509375 0.536037
0.518229 0.534004
0.484375 0.527471
0.584821 0.53316
0.591146 0.526114
0.674479 0.532192
0.671875 0.527289
0.739583 0.533975
0.633929 0.531251
0.721354 0.537906
0.5625 0.538893
0.703125 0.542102
0.802083 0.542145
0.713542 0.545605
0.558036 0.545923
0.580729 0.549991
0.614583 0.548037
0.567708 0.551977
0.598958 0.548679
0.544271 0.55201
0.540179 0.546503
0.557292 0.549531
0.584375 0.543611
0.433036 0.540047
0.372396 0.543815
0.695313 0.544328
0.713542 0.536485
0.539063 0.531228
0.388021 0.536298
0.361979 0.540821
0.738839 0.522483
0.589286 0.520417
0.630208 0.50704
0.590625 0.508273
0.494792 0.496389
0.539063 0.491978
0.471875 0.48474
0.478125 0.479677
0.457589 0.47113
0.493304 0.485425
0.458333 0.472422
0.425781 0.482081
0.463542 0.491001
0.421875 0.480184
0.53125 0.496062
0.66875 0.501474
0.573661 0.50132
0.622768 0.516039
0.794271 0.510701
0.75 0.519034
0.799479 0.50822
0.477679 0.48964
0.380208 0.469626
0.421875 0.477209
0.53125 0.493476
0.504464 0.490603
0.603125 0.504666
0.662946 0.51418
0.591518 0.505598
0.682292 0.524646
0.714844 0.525766
0.721354 0.527653
0.736607 0.535528
0.830729 0.537312
0.760417 0.532121
0.859375 0.539639
0.85 0.542779
0.809896 0.544324
0.739583 0.546601
0.768229 0.543839
0.614583 0.549474
0.580729 0.549301
0.492188 0.551781
0.537946 0.5498
0.503125 0.551725
0.571875 0.549824
0.578125 0.547252
0.570313 0.54708
0.582589 0.542195
0.590625 0.544878
0.473214 0.542119
0.43125 0.53705
0.491071 0.534233
0.393229 0.530811
0.450521 0.525593
0.502604 0.527835
0.484375 0.534145
0.528646 0.530499
0.533854 0.523077
0.549479 0.526954
0.4375 0.519175
0.444196 0.523654
0.346354 0.515334
0.378125 0.518856
0.478125 0.524006
0.429688 0.518859
0.552083 0.528712
0.513021 0.518865
0.588542 0.525368
0.554688 0.533159
0.484375 0.536398
0.53125 0.539799
0.546875 0.53747
0.473958 0.543294
0.432292 0.545069
0.507813 0.542047
0.442708 0.547108
0.403125 0.547204
0.377604 0.549109
0.395833 0.550419
0.401042 0.552489
0.429688 0.553993
0.429688 0.55577
0.427083 0.553476
0.450521 0.55621
0.526042 0.559386
0.601563 0.559224
0.585938 0.555254
0.674479 0.557085
0.771875 0.55342
0.708333 0.551632
0.841146 0.549668
0.804688 0.552678
0.786458 0.546343
0.830729 0.549864
0.772321 0.540578
0.770833 0.545029
0.773438 0.538487
0.807292 0.532995
0.636161 0.532355
0.671875 0.526453
0.5 0.523894
0.528646 0.51918
0.429688 0.515184
0.464286 0.522414
0.445313 0.512513
0.536458 0.51946
0.55 0.512027
0.571429 0.518496
0.492188 0.508998
0.466797 0.515414
0.596875 0.523102
0.444196 0.524834
0.355469 0.519615
0.334375 0.522962
0.411458 0.529946
0.476563 0.534167
0.489583 0.538866
0.445313 0.542542
0.522321 0.548718
0.503125 0.549268
0.570313 0.55623
0.578125 0.552919
0.587054 0.560774
0.56875 0.554751
0.572917 0.557255
0.570313 0.565931
0.557292 0.556705
0.528646 0.561338
0.606771 0.552516
0.588542 0.555134
0.746875 0.546373
0.710938 0.542572
0.841146 0.536024
0.734375 0.522737
0.604167 0.52493
0.630208 0.50711
0.636161 0.502694
0.559896 0.510686
0.584375 0.49595
0.513393 0.494321
0.515625 0.482385
0.558036 0.485769
0.401042 0.467298
0.410714 0.464198
0.541667 0.482099
0.4375 0.469605
0.308036 0.452543
0.338542 0.442614
0.265625 0.431035
0.221354 0.436943
0.328125 0.455593
0.254464 0.44138
0.369792 0.461745
0.271875 0.453453
0.205729 0.439501
0.307292 0.457217
0.234375 0.442013
0.367188 0.463925
0.279297 0.442851
0.184375 0.426968
0.213542 0.416149
0.177083 0.412398
0.223958 0.399132
0.234375 0.399985
0.241071 0.420481
0.339844 0.440351
0.388393 0.461781
0.411458 0.475745
0.541667 0.491253
0.450521 0.483494
0.502604 0.506363
0.570313 0.515406
0.588542 0.52693
0.565104 0.534696
0.565104 0.527111
0.559896 0.542694
0.578125 0.538281
0.5625 0.548879
0.673828 0.548752
0.684896 0.557623
0.640625 0.55907
0.567708 0.553779
0.525 0.556926
0.513021 0.55381
0.459821 0.554712
0.488839 0.551174
0.409375 0.550446
0.496875 0.54771
0.447917 0.545939
0.421875 0.550777
0.421875 0.544571
0.408482 0.538111
0.411458 0.536102
0.385417 0.530413
0.38125 0.531412
0.382813 0.534758
0.361979 0.527943
0.34375 0.525199
0.369792 0.520477
0.40625 0.524426
0.453125 0.516997
0.502604 0.511066
0.540179 0.506012
0.507813 0.512833
0.491071 0.518731
0.575521 0.509836
0.510417 0.514861
0.539063 0.499617
0.588542 0.493138
0.5625 0.49962
0.566964 0.486851
0.505208 0.49287
0.494792 0.502514
0.515625 0.507468
0.414063 0.511011
0.440104 0.507053
0.471354 0.497917
0.445313 0.503753
0.369792 0.51232
0.421875 0.510285
0.40625 0.500737
0.424479 0.505437
0.45 0.512374
0.460938 0.509949
0.528646 0.517496
0.539063 0.515302
0.648438 0.5231
0.622768 0.521391
0.653125 0.528301
0.617188 0.530518
0.578125 0.535175
0.520833 0.530979
0.486979 0.54104
0.473958 0.541945
0.408854 0.547948
0.424479 0.547204
0.414063 0.552603
0.411458 0.551276
0.3875 0.554961
0.426339 0.558082
0.442708 0.55759
0.53125 0.561771
0.463542 0.56305
0.549479 0.566602
0.629464 0.564211
0.614583 0.570309
0.634766 0.568491
0.646875 0.561826
0.743304 0.559044
0.674107 0.566979
0.770833 0.555424
0.7 0.561132
0.697917 0.550363
0.635417 0.560143
0.6875 0.544995
0.765625 0.536103
0.567708 0.529418
0.61875 0.524295
0.669271 0.525522
0.46875 0.516521
0.408854 0.516303
0.309896 0.50692
0.385417 0.510332
0.296875 0.50221
0.354167 0.50582
0.254464 0.495466
0.408482 0.503396
0.223958 0.493248
0.357143 0.500859
0.184896 0.491746
0.356771 0.49901
0.441964 0.507779
0.457031 0.507576
0.46875 0.50671
0.43125 0.512788
0.466146 0.515333
0.411458 0.520399
0.395089 0.517204
0.369792 0.525481
0.408854 0.529732
0.419643 0.535455
0.425 0.538285
0.473958 0.544584
0.5375 0.543667
0.513021 0.551746
0.515625 0.552601
0.508929 0.562426
0.515625 0.559281
0.552083 0.570466
0.583333 0.566045
0.591518 0.577629
0.598958 0.570978
0.570313 0.579579
0.621875 0.574281
0.536458 0.579522
0.578125 0.573652
0.4875 0.576601
0.484375 0.570031
0.408854 0.574638
0.447917 0.565748
0.3875 0.570686
0.541667 0.560371
0.513393 0.571414
0.647321 0.554451
0.648438 0.567426
0.675 0.555707
0.588542 0.542615
0.603125 0.538579
0.541667 0.527151
0.458333 0.530619
0.489583 0.514534
0.48125 0.51951
0.536458 0.504509
0.564732 0.516064
0.559375 0.499354
0.444196 0.48323
0.403646 0.487332
0.278646 0.468677
0.299479 0.459886
0.370536 0.469658
0.25625 0.450889
0.286458 0.451753
0.239583 0.436338
0.330729 0.437064
0.371875 0.452106
0.283854 0.421075
0.3125 0.422126
0.28125 0.406512
0.257813 0.405618
0.25 0.416142
0.203125 0.406076
0.205729 0.419852
0.254464 0.408596
0.240625 0.424922
0.254464 0.421429
0.244792 0.404069
0.215625 0.411813
0.158854 0.424969
0.216146 0.400398
0.203125 0.394797
0.208984 0.38585
0.227679 0.392837
0.175 0.397051
0.21875 0.388056
0.1875 0.394523
0.209821 0.382587
0.225446 0.378474
0.208333 0.371586
0.253125 0.367258
0.239583 0.363615
0.247768 0.359604
0.220982 0.368933
0.23125 0.359524
0.208333 0.365215
0.19375 0.374975
0.200521 0.374915
0.21875 0.385812
0.209375 0.386557
0.177083 0.379937
0.174479 0.397649
0.138021 0.391842
0.143229 0.41324
0.151042 0.407206
0.234375 0.428946
0.290179 0.438799
0.34375 0.448509
0.393229 0.463008
0.5 0.468259
0.48125 0.480035
0.521875 0.486987
0.488839 0.500117
0.507813 0.502856
0.638021 0.520955
0.619792 0.521266
0.778125 0.534346
0.78125 0.538629
0.846354 0.549052
0.856771 0.554621
0.708333 0.54437
0.765625 0.559442
0.632813 0.550155
0.770833 0.562525
0.643229 0.554925
0.757813 0.56499
0.81875 0.571256
0.787946 0.574306
0.747396 0.566201
0.755208 0.572154
0.68125 0.565852
0.695313 0.568324
0.560268 0.56087
0.607143 0.561907
0.507813 0.555938
0.770833 0.570434
0.765625 0.564127
0.692708 0.556525
0.520833 0.554035
0.434375 0.550865
0.4375 0.547297
0.596354 0.549537
0.511161 0.542088
0.43125 0.541008
0.383929 0.533963
0.567708 0.535651
0.44375 0.529865
0.335938 0.524699
0.369792 0.527608
0.410714 0.516775
0.36875 0.52345
0.364583 0.517226
0.471354 0.506755
0.382813 0.515875
0.411458 0.524235
0.364583 0.518623
0.356771 0.509318
0.462891 0.502505
0.386161 0.498219
0.403125 0.491877
0.411458 0.489132
0.505208 0.494537
0.46875 0.483622
0.565104 0.487712
0.557292 0.476951
0.622768 0.480784
0.638021 0.470437
0.618304 0.473615
0.601563 0.479834
0.5625 0.479743
0.578125 0.476112
0.5375 0.484281
0.611979 0.466085
0.616071 0.465671
0.533854 0.474308
0.49375 0.480978
0.4375 0.481312
0.479911 0.476275
0.427083 0.483418
0.416667 0.487362
0.429688 0.487276
0.5 0.487484
0.427083 0.494864
0.398438 0.493124
0.378125 0.491899
0.403646 0.497696
0.3875 0.488478
0.379464 0.493722
0.453125 0.502065
0.403646 0.486984
0.354167 0.491136
0.403646 0.484775
0.453125 0.489157
0.41875 0.494253
0.565104 0.493707
0.533854 0.49903
0.421875 0.498868
0.53125 0.505329
0.46875 0.5073
0.502604 0.512657
0.51875 0.51015
0.476563 0.516655
0.513393 0.511961
0.46875 0.521265
0.542969 0.522596
0.479167 0.516667
0.359375 0.528704
0.447917 0.518385
0.367188 0.526637
0.450521 0.51734
0.509375 0.511002
0.482143 0.506659
0.3875 0.516553
0.34375 0.525484
0.357143 0.524474
0.375 0.533945
0.315104 0.534195
0.466146 0.534787
0.5625 0.541628
0.501953 0.542824
0.35625 0.540148
0.286458 0.535724
0.33125 0.542135
0.361328 0.541946
0.466146 0.546869
0.447917 0.549876
0.390625 0.549163
0.48125 0.544115
0.39375 0.537666
0.427083 0.548935
0.382813 0.554393
0.390625 0.554702
0.445313 0.554328
0.427083 0.558442
0.398438 0.559132
0.371875 0.559955
0.415179 0.563287
0.444196 0.56213
0.515625 0.564328
0.51875 0.565322
0.53125 0.566727
0.640625 0.565769
0.661458 0.569039
0.631696 0.571684
0.65625 0.574244
0.640625 0.57766
0.6125 0.574886
0.598958 0.57896
0.534375 0.57416
0.619792 0.576617
0.584821 0.585245
0.595982 0.578258
0.597656 0.572827
0.53125 0.590049
0.542969 0.581729
0.631696 0.572586
0.554688 0.585063
0.583333 0.573865
0.565104 0.59013
0.583333 0.576692
0.617188 0.558222
0.654018 0.557364
0.526786 0.53727
0.471875 0.535936
0.274554 0.517818
0.315625 0.520345
0.228516 0.504175
0.197917 0.499814
0.184375 0.49262
0.169271 0.490142
0.140625 0.485903
0.153646 0.482412
0.114583 0.481786
0.1875 0.478475
0.2 0.479757
0.195313 0.485808
0.174479 0.480345
0.159375 0.483203
0.128125 0.48769
0.104167 0.486082
0.15625 0.481937
0.153646 0.48534
0.1875 0.480748
0.257813 0.486439
0.242188 0.492056
0.2 0.482663
0.273438 0.489184
0.341518 0.495837
0.398438 0.500408
0.38125 0.50475
0.473958 0.509892
0.388393 0.516172
0.434896 0.521124
0.380208 0.53083
0.401042 0.533458
0.40625 0.525439
0.434896 0.536213
0.460938 0.545862
0.488839 0.547322
0.450521 0.558037
0.4875 0.557894
0.53125 0.570042
0.554688 0.570821
0.505208 0.557956
0.630208 0.571496
0.653646 0.583964
0.669643 0.584812
0.6 0.58162
0.583333 0.575393
0.65625 0.58606
0.619792 0.58139
0.709375 0.589874
0.606771 0.587731
0.736607 0.597345
0.515625 0.592832
0.515625 0.58542
0.491071 0.587516
0.48125 0.595718
0.566964 0.59341
0.484375 0.583056
0.503125 0.587308
0.390625 0.579098
0.541667 0.584578
0.625 0.593756
0.78125 0.592585
0.705729 0.580067
0.895833 0.585645
0.771875 0.575535
0.841146 0.577289
0.707589 0.564626
0.771484 0.567265
0.664063 0.558441
0.535156 0.547493
0.59375 0.552665
0.459375 0.54134
0.445313 0.531196
0.510417 0.530788
0.5625 0.542985
0.546875 0.531113
0.56875 0.520551
0.518229 0.518195
0.508929 0.50569
0.476563 0.50574
0.369792 0.492097
0.384375 0.495861
0.302083 0.482531
0.283854 0.475461
0.1875 0.46527
0.169271 0.457726
0.15625 0.447799
0.106771 0.441012
0.151042 0.449903
0.103125 0.435439
0.223214 0.439112
0.145833 0.423377
0.223958 0.421679
0.162946 0.407217
0.231771 0.407113
0.178125 0.396496
0.195313 0.394669
0.192708 0.386136
0.210938 0.383772
0.216146 0.393639
0.210938 0.37629
0.20625 0.375528
0.213542 0.368916
0.208333 0.370121
0.190104 0.36315
0.177083 0.365173
0.153125 0.359659
0.208333 0.358274
0.178125 0.356414
0.192708 0.354328
0.244141 0.354611
0.239583 0.35046
0.229167 0.353887
0.221875 0.350767
0.197917 0.356292
0.194196 0.35204
0.214286 0.364139
0.175 0.357995
0.134766 0.371587
0.096354 0.35845
0.096875 0.366675
0.1 0.375839
0.127604 0.388085
0.111979 0.386027
0.122396 0.403087
0.145833 0.399309
0.239583 0.420317
0.25 0.424092
0.395833 0.443703
0.411458 0.446681
0.497768 0.470724
0.4125 0.463432
0.462054 0.492421
0.489583 0.499045
0.546875 0.485211
0.445313 0.51879
0.492188 0.520206
0.46875 0.531885
0.625 0.544762
0.611607 0.544284
0.674479 0.567126
0.7125 0.565894
0.709821 0.555509
0.684375 0.574543
0.692708 0.574706
0.796875 0.560785
0.783854 0.541233
0.560268 0.526035
0.699219 0.579319
0.825 0.563294
0.743304 0.570983
0.671875 0.583853
0.721354 0.581738
0.825521 0.571535
0.78125 0.580246
0.721354 0.589148
0.721354 0.587695
0.771875 0.582048
0.841146 0.585726
0.807292 0.579277
0.848958 0.582284
0.765625 0.575607
0.768229 0.577807
0.778646 0.584295
0.669271 0.579131
0.773438 0.571823
0.691964 0.572133
0.791667 0.564464
0.765625 0.563452
0.866071 0.555867
0.859375 0.557088
0.919271 0.549273
0.791667 0.550331
0.819196 0.542725
0.696875 0.545259
0.69375 0.540543
0.736979 0.536223
0.799479 0.535682
0.65 0.531589
0.546875 0.530624
0.46875 0.526043
0.622396 0.529282
0.414063 0.522225
0.546875 0.527057
0.348214 0.518182
0.35625 0.514922
0.308036 0.507373
0.229911 0.511156
0.2875 0.503085
0.30625 0.499127
0.320313 0.496917
0.359375 0.492336
0.356771 0.490349
0.450521 0.484683
0.403646 0.487962
0.429688 0.480074
0.375 0.48389
0.450521 0.476527
0.434375 0.48112
0.481771 0.47521
0.471354 0.469535
0.533482 0.467149
0.5 0.463129
0.479167 0.466292
0.370536 0.458912
0.45625 0.464945
0.352679 0.460715
0.2625 0.453754
0.21875 0.452001
0.379464 0.457659
0.580729 0.46186
0.401042 0.454798
0.585938 0.459542
0.653125 0.46571
0.434896 0.453633
0.549479 0.459186
0.473214 0.454604
0.550781 0.459372
0.541667 0.460433
0.463542 0.455814
0.476563 0.46272
0.552083 0.467805
0.515625 0.470097
0.495536 0.466201
0.45625 0.472197
0.473214 0.477672
0.457589 0.477357
0.473958 0.4713
0.45 0.475151
0.40625 0.479907
0.453125 0.483676
0.466146 0.48335
0.502604 0.488659
0.446429 0.48929
0.526042 0.49364
0.489583 0.494774
0.596354 0.497837
0.601563 0.498222
0.634375 0.5013
0.566964 0.504398
0.59375 0.505347
0.647321 0.501159
0.591518 0.504211
0.50625 0.509617
0.489583 0.510365
0.595982 0.503058
0.625 0.499892
0.55625 0.496568
0.457589 0.494329
0.375 0.491042
0.354911 0.483229
0.361979 0.485994
0.411458 0.496518
0.3875 0.488333
0.382813 0.496734
0.361328 0.509578
0.289063 0.503824
0.296875 0.512113
0.369141 0.498414
0.442708 0.486507
0.445313 0.483735
0.36875 0.491251
0.337054 0.502964
0.328125 0.514119
0.435268 0.52655
0.395833 0.521966
0.465625 0.53039
0.421875 0.529581
0.486979 0.536495
0.575521 0.537623
0.638021 0.544
0.630208 0.542376
0.776042 0.548815
0.742188 0.547796
0.851563 0.553198
0.8125 0.55231
0.684375 0.547259
0.723214 0.550723
0.809896 0.555968
0.752604 0.555011
0.775 0.551702
0.659375 0.548245
0.666667 0.549683
0.497396 0.545176
0.713542 0.553531
0.578125 0.551123
0.554688 0.554369
0.622768 0.557597
0.526042 0.558015
0.541667 0.560674
0.496875 0.560726
0.559896 0.562615
0.625 0.562401
0.696875 0.563618
0.588542 0.563903
0.796875 0.564054
0.638021 0.5644
0.815625 0.563786
0.716146 0.563329
0.630208 0.564739
0.744792 0.563138
0.828125 0.559614
0.8 0.559778
0.745536 0.563637
0.75 0.556227
0.739583 0.559275
0.752232 0.570228
0.721354 0.564584
0.734375 0.577856
0.694196 0.572753
0.71875 0.587122
0.677083 0.589713
0.649554 0.580933
0.580357 0.591197
0.603125 0.583163
0.669271 0.599898
0.6 0.600566
0.539063 0.596032
0.638021 0.605605
0.590625 0.601049
0.703125 0.61079
0.558036 0.600666
0.662946 0.618007
0.59375 0.607019
0.65 0.620191
0.649554 0.614735
0.606771 0.596258
0.65625 0.603501
0.621875 0.616097
0.661458 0.62857
0.665179 0.627011
0.635417 0.605017
0.662946 0.584316
0.611607 0.585533
0.609375 0.565882
0.494792 0.558277
0.510417 0.54523
0.301339 0.532158
0.307292 0.524811
0.125 0.514498
0.169271 0.507755
0.114583 0.501272
0.158854 0.494132
0.148438 0.490223
0.180804 0.484114
0.15625 0.488537
0.165179 0.483922
0.21875 0.480271
0.182292 0.478969
0.177083 0.4795
0.190104 0.477772
0.195313 0.480473
0.182292 0.479299
0.190104 0.478081
0.1875 0.484061
0.210938 0.486538
0.227679 0.494035
0.209375 0.494188
0.25 0.505787
0.299107 0.507605
0.283854 0.499387
0.299479 0.510093
0.330729 0.506293
0.341146 0.517581
0.328125 0.520496
0.346354 0.529163
0.367188 0.528773
0.459375 0.53877
0.506696 0.544847
0.429688 0.542221
0.596354 0.552486
0.674479 0.563658
0.601563 0.55906
0.476563 0.544793
0.742188 0.574491
0.676339 0.583129
0.79375 0.587378
0.742188 0.584745
0.786458 0.596912
0.739583 0.596126
0.742188 0.607174
0.791667 0.608207
0.768229 0.597007
0.799107 0.610342
0.804688 0.598987
0.7875 0.607801
0.794271 0.601854
0.710938 0.591597
0.796875 0.595531
0.791667 0.604956
0.71875 0.610936
0.779018 0.614863
0.820313 0.607156
0.78125 0.615155
0.7625 0.607116
0.682292 0.600771
0.65625 0.601618
0.794271 0.608236
0.726563 0.601201
0.890625 0.606649
0.7875 0.59999
0.890625 0.602661
0.927083 0.609851
0.9 0.605815
0.912946 0.597189
0.911458 0.604986
0.893229 0.611051
0.85625 0.61074
0.822917 0.604686
0.869792 0.596461
0.940104 0.587708
0.848958 0.586384
0.8875 0.579675
0.828125 0.576909
0.779018 0.579979
0.763021 0.568497
0.71875 0.569127
0.763021 0.558594
0.716146 0.556079
0.6875 0.543872
0.784375 0.550062
0.774554 0.537024
0.604167 0.52866
0.747396 0.523789
0.575521 0.516283
0.6125 0.514436
0.526042 0.505646
0.526042 0.507681