# vtk DataFile Version 2.0
AOOM data
ASCII
DATASET POLYDATA
POINTS 15624 float
-15.3957 9.70213 8.14137
-14.9501 9.48293 7.61917
-15.0137 9.13015 7.96795
-14.7391 8.44636 7.76186
-15.4171 8.57023 8.35151
-15.274 7.72934 7.96704
-14.7458 7.62035 7.34518
-14.3194 7.46399 6.67566
-14.4879 6.7932 7.29171
-14.2042 6.6906 6.30523
-14.2247 7.51753 5.67816
-14.3796 8.3049 6.12837
-14.1145 8.28851 5.15789
-14.5267 9.01575 5.77485
-14.6179 9.39463 6.18783
-15.0513 9.64562 5.54663
-15.1247 10.1706 6.36001
-14.5955 9.52061 6.9422
-15.2294 10.4343 7.10205
-15.6314 10.9465 6.5322
-15.8267 10.9984 7.37353
-15.584 10.3966 7.77902
-16.2011 10.3925 8.33414
-16.8785 11.14 7.87419
-17.3276 10.7672 8.51285
-16.8056 10.0171 9.08315
-15.8041 9.64068 8.86552
-16.1687 9.15254 9.47467
-15.5295 8.9569 8.65943
-15.9738 8.42395 9.18641
-16.039 8.52931 10.085
-16.1162 7.8952 9.58102
-15.9042 7.83885 8.66758
-15.991 7.05553 9.17881
-15.6061 7.09645 8.44381
-15.3425 6.44312 8.88406
-14.9308 6.80619 8.11378
-14.5917 6.04888 8.06996
-14.9273 6.06128 9.48712
-15.5545 6.49947 9.7975
-14.7614 6.38307 10.2873
-13.9082 5.99661 9.98779
-14.342 4.84879 9.64897
-13.4443 5.23861 9.83323
-13.1623 4.58779 10.1618
-14.1823 4.15219 9.92242
-14.3865 3.97937 8.89385
-14.1543 4.66567 8.37689
-14.1502 3.89827 8.01842
-13.9858 4.62086 7.65055
-14.1889 5.34675 7.94271
-13.9058 5.34234 7.17966
-14.2371 6.08657 7.39299
-14.0041 6.16762 6.47839
-13.6758 5.39618 6.30944
-14.0265 6.04162 5.72403
-13.6893 5.22693 5.48732
-14.0536 5.88862 4.80802
-14.1936 6.82774 5.25782
-13.9565 6.76471 4.23622
-13.9845 7.51121 4.72398
-13.4725 7.54724 3.92949
-13.8239 8.41212 4.10544
-13.3978 8.57417 3.57947
-13.7346 9.2569 3.30386
-14.1754 9.27702 4.28148
-14.4182 9.87877 3.87599
-14.8393 9.58926 4.6332
-14.5275 8.96276 5.22731
-15.1573 10.1499 4.14979
-15.5778 10.1277 4.92196
-16.0069 10.358 4.31001
-16.1763 10.7251 4.68623
-15.9698 10.8052 5.15455
-15.4635 10.3385 5.74699
-15.8432 10.9766 5.93151
-16.3428 11.2819 5.45741
-16.3204 11.4079 6.21176
-16.7224 11.92 5.64195
-17.1379 12.1433 6.6277
-16.6926 11.5759 7.25897
-17.5634 11.8508 7.39273
-17.8321 12.517 6.94378
-18.2247 12.4753 7.69329
-18.0545 11.7533 8.04142
-17.6937 11.3387 8.04016
-18.4105 11.6468 8.39049
-18.1678 11.0451 8.79598
-18.7722 11.7267 8.91615
-18.6554 10.957 9.49316
-17.873 10.3144 9.28836
-18.1328 10.242 10.2513
-17.4382 9.91061 9.95453
-17.678 10.0166 10.7965
-16.9596 9.70451 10.879
-16.7434 9.64705 9.94751
-16.3341 9.26401 10.6011
-16.1508 9.58582 11.3785
-15.5535 9.02176 11.107
-15.3881 8.55558 10.9175
-14.9738 8.56881 11.3931
-15.0158 7.7259 11.0415
-15.7571 7.8581 10.4483
-15.4099 6.99548 10.5821
-15.9668 7.19233 9.99785
-14.6174 6.9943 10.8312
-14.0405 7.53973 10.9676
-13.4494 7.30974 10.8784
-13.5494 6.57876 10.3978
-12.6394 6.92158 10.3622
-12.675 6.17839 9.96587
-11.8203 6.68834 9.87417
-11.6489 5.89309 9.8205
-12.3105 5.3233 9.99509
-10.9729 5.32557 9.90774
-11.8082 4.31297 10.156
-10.5945 4.54488 9.89343
-11.0538 3.46525 9.91762
-11.8214 3.64192 10.4292
-12.6616 3.91985 10.7123
-12.2733 2.95508 10.8619
-13.3069 3.12421 10.9455
-13.5799 3.92967 10.5713
-14.224 3.31672 10.5185
-13.8935 2.53691 10.9519
-14.8102 2.72872 10.0628
-14.5956 3.29589 9.42771
-14.9088 2.34488 9.04549
-14.3585 3.23286 8.4061
-14.4053 2.40519 8.00946
-13.9509 2.95385 7.4363
-13.9642 2.27777 6.86126
-13.6905 2.85783 6.44409
-13.7882 3.81808 7.12219
-13.6052 3.55397 6.16231
-13.732 4.60714 6.71585
-13.4745 4.57921 5.87087
-13.1141 3.85186 5.59671
-13.0341 4.57333 5.12582
-12.6726 3.39026 4.75857
-12.5926 4.11174 4.28768
-12.9736 4.67025 4.39646
-13.5709 5.23431 4.66794
-13.2978 5.3289 3.7626
-13.7561 5.88399 4.00617
-13.2007 6.20498 3.19082
-13.3383 6.64692 3.49826
-12.6636 6.97782 2.83792
-13.0573 7.78085 3.23181
-12.2384 7.53375 2.43539
-12.6255 8.31356 2.20262
-13.0433 8.61186 2.90249
-13.3375 9.2422 2.25505
-12.5794 8.97803 0.922499
-13.2272 9.77635 1.13983
-13.6322 9.97293 1.76263
-14.0628 9.92717 2.58466
-14.4103 10.4663 2.10893
-14.6601 10.4912 2.85616
-15.1014 10.7608 2.2922
-15.2656 10.4087 3.37483
-16.0058 10.7416 2.82513
-16.1524 10.5548 3.49407
-16.5231 10.7304 2.58206
-17.0209 10.5722 3.35044
-16.9068 10.8323 4.23503
-17.7938 10.9625 3.68723
-17.6321 11.5173 4.56471
-16.8557 11.4632 4.91931
-17.5742 12.1921 5.07717
-18.0203 12.482 4.4151
-17.7157 13.3095 4.76947
-17.5772 12.8592 5.76691
-17.4999 12.4287 5.51246
-17.4775 12.5547 6.26681
-17.7725 12.9112 6.60822
-17.6864 13.6871 6.1018
-18.0988 13.5864 6.87304
-17.8928 14.5134 6.36738
-18.1299 14.5763 7.38904
-18.1673 13.9857 7.65576
-18.4411 13.4056 8.07292
-18.3626 14.0375 8.49713
-18.8941 13.3824 8.68917
-18.5793 12.4376 8.37027
-19.1702 12.6756 8.5948
-19.8523 12.9204 8.99968
-19.4641 11.9557 9.14929
-20.3228 12.3098 9.21323
-19.9785 11.3953 9.8063
-19.0943 11.214 9.78424
-19.501 10.8497 10.5944
-18.8503 10.6654 10.389
-19.1101 10.5931 11.352
-18.3145 10.3381 11.0739
-18.3512 10.7034 12.1107
-17.6358 10.2029 11.2621
-17.2494 10.9786 12.2886
-16.8543 10.1278 11.7501
-16.3533 10.9127 12.1462
-15.9624 10.1179 11.8973
-15.4487 10.8261 12.1135
-15.1572 10.082 12.1178
-15.4191 9.54103 11.7192
-14.7359 9.16939 12.1165
-14.2786 9.90409 12.6176
-13.8496 9.16807 12.3952
-14.0106 8.48446 11.7869
-13.0635 8.89573 11.9813
-13.0993 8.1913 11.4775
-12.2323 9.08574 11.877
-11.6644 8.0967 11.0187
-12.7234 7.84328 11.0009
-11.7878 7.56857 10.1998
-10.9439 7.93507 10.3731
-10.9857 7.47457 9.90274
-10.4328 8.08572 10.1585
-10.1836 7.38058 9.60569
-10.7156 6.83147 9.57602
-9.9478 6.64434 9.41974
-10.3959 6.03695 9.69924
-9.64472 5.78844 9.44609
-10.0488 5.17434 9.83302
-9.02703 4.94888 9.47326
-9.74172 4.34246 9.48958
-8.70788 4.26049 9.37477
-9.6052 3.59675 9.43709
-10.4564 3.73603 9.50591
-9.93535 2.91631 8.7345
-10.3883 2.89306 9.35068
-10.4668 2.26108 8.92654
-10.8412 2.69343 9.6164
-11.1609 2.10922 9.77262
-11.488 2.8116 10.1789
-11.65 2.06983 10.5812
-11.3887 1.2891 10.2376
-12.174 1.43258 10.9206
-12.7262 2.34523 10.938
-13.3013 1.63623 11.1457
-12.7395 0.795746 10.9998
-13.5471 0.606227 11.1313
-13.9304 1.45453 11.3998
-14.3646 0.812462 11.6846
-14.7117 1.67508 11.5508
-15.2887 0.963693 11.7594
-15.5328 1.68385 11.4248
-15.1482 2.23114 10.9322
-15.995 1.86341 10.7583
-15.4814 2.25198 9.90167
-16.1438 1.74698 9.94933
-15.5813 1.76034 8.91134
-16.2289 1.06083 9.48884
-15.8708 0.910956 8.853
-15.5615 0.841381 8.00183
-14.9367 1.74996 8.20149
-15.0696 0.866623 7.33282
-14.4837 1.77322 7.58532
-14.5382 1.52185 7.14079
-14.4816 0.76276 6.6356
-14.2098 1.30806 6.51961
-14.2882 0.676087 6.09547
-14.0051 1.25364 5.63768
-13.9931 2.07999 6.07255
-13.7811 2.02364 5.15911
-13.6959 2.70978 5.61961
-13.2041 2.73503 4.9506
-13.0789 1.89535 4.5484
-12.5463 2.49523 4.47391
-12.2627 1.9109 4.32284
-11.8906 2.47652 3.96647
-12.1742 3.06085 4.11754
-11.8196 3.09854 3.44056
-12.3298 4.04222 3.83843
-11.9752 4.0799 3.16146
-12.5725 4.64397 3.43294
-12.0458 5.11237 2.51986
-12.8672 5.37467 2.94056
-12.4154 6.0615 2.50782
-11.433 5.77526 2.30063
-11.7715 6.20316 2.3128
-11.3994 6.76879 1.95642
-10.887 6.12718 1.71678
-11.0448 6.80648 1.27945
-11.6092 7.7264 1.22494
-11.9638 7.68869 1.90192
-12.2387 8.32084 1.51104
-12.0113 8.23855 0.655106
-11.4772 7.35729 0.6666
-11.9095 7.90811 0.0537402
-12.6018 8.85201 0.168153
-11.4226 7.29893 -0.221973
-11.8247 7.81109 -0.791808
-12.2537 7.865 -1.27958
-11.6172 7.54352 -1.55693
-11.5808 7.92519 -2.21876
-12.7001 8.21435 -2.02768
-12.9121 8.2707 -1.11426
-13.3486 8.82675 -1.73294
-13.3244 8.96356 -0.913906
-13.4738 9.66643 -1.33074
-13.2173 9.59353 -0.423231
-13.3966 10.3006 -0.826813
-13.3742 10.4266 -0.0724664
-13.0881 9.60484 0.341868
-13.6797 10.5228 0.515846
-13.9715 10.9906 0.199034
-14.3434 10.8484 0.802276
-13.875 10.5747 1.35715
-14.816 10.729 1.49456
-15.1867 10.9045 0.582552
-15.6845 10.7463 1.35094
-15.5959 10.8719 2.19234
-16.1132 10.8607 1.94926
-16.5234 11.0074 1.58507
-16.2203 11.0736 0.666136
-16.8628 11.5592 1.07086
-17.1221 11.2645 1.84223
-17.3002 11.7209 1.67272
-17.8514 11.6302 2.17322
-17.5567 10.8995 2.66564
-18.282 11.5844 2.99525
-18.1849 12.4605 2.42346
-18.422 12.5235 3.44512
-18.2548 11.7374 3.91132
-18.2276 13.2109 2.97471
-18.0737 13.3466 3.9051
-18.1405 14.0821 2.95142
-17.4101 14.3778 3.98935
-17.4902 13.6564 4.46017
-17.0794 14.3437 4.78809
-17.3531 13.7635 5.20532
-17.2746 14.3955 5.62946
-16.7945 15.3322 5.51807
-17.2475 15.3089 6.13425
-16.6912 15.6843 5.97535
-17.0858 15.8637 7.01167
-17.7976 15.2807 6.88253
-17.6311 15.4109 7.78723
-16.6841 15.8222 7.98165
-17.167 15.3261 8.54436
-17.8919 14.6003 8.41413
-17.7549 14.7075 9.15928
-18.3985 14.1526 9.08143
-18.279 14.5015 9.85323
-19.0453 14.2708 9.64396
-18.9311 14.531 10.5286
-19.8306 14.4143 10.327
-19.9923 13.8595 9.44954
-20.6914 14.1471 10.0256
-20.5795 13.2779 9.25399
-21.4201 13.9632 9.83082
-21.5641 13.3519 9.28696
-21.2176 12.6045 9.18003
-22.1417 12.7558 9.25476
-21.7946 11.8931 9.38854
-21.0141 11.9929 9.30853
-21.3581 11.3371 10.0072
-20.7052 11.4237 9.78183
-22.2822 11.4883 10.0819
-21.8032 11.1957 10.6942
-21.5214 11.0393 11.2721
-20.7782 10.721 11.1945
-21.1425 10.7002 11.8841
-20.2001 10.5459 11.8079
-20.0046 10.7384 11.3768
-20.2584 10.9701 10.5134
-19.4035 10.5027 11.995
-19.8339 10.5081 12.6922
-19.1424 10.9485 12.8599
-19.6864 11.0139 13.4923
-19.0264 11.72 13.3699
-18.6867 11.5062 12.9075
-18.4884 12.2301 12.9169
-18.0394 11.2819 12.5668
-17.3933 11.9486 12.6027
-17.7816 12.9134 12.4531
-16.9415 12.6355 12.17
-16.5202 11.8652 12.0789
-16.1755 12.5085 11.7375
-15.6102 11.5612 11.8869
-15.4836 12.2796 11.5043
-15.8034 13.0741 11.3811
-14.9522 12.9349 11.3123
-14.5888 12.4657 11.6015
-14.6952 11.4177 12.0604
-14.0932 12.0781 12.1788
-14.1633 11.1121 12.6478
-13.5492 11.7873 12.8215
-13.2763 10.9819 13.1956
-13.4867 9.90633 12.8486
-12.8888 10.146 13.0761
-13.0412 9.4451 12.6102
-12.1027 9.87366 12.6622
-12.2427 10.8128 13.112
-11.3228 10.2124 12.8224
-10.9093 9.70846 12.1246
-10.5923 10.1051 13.2735
-10.1788 9.60125 12.5758
-10.312 9.1444 11.8531
[...]
POINT_DATA 15624
SCALARS ambient_occlusion float 2
LOOKUP_TABLE default
0.502604 0.592169
0.5 0.580955
0.5 0.580503
0.517578 0.564801
0.515625 0.574681
0.544271 0.561516
0.5625 0.551893
0.588542 0.545072
0.587054 0.537694
0.59375 0.528742
0.617188 0.533992
0.566964 0.552469
0.575893 0.538125
0.5375 0.552536
0.496875 0.56209
0.515625 0.561517
0.476563 0.573475
0.536458 0.56982
0.526042 0.584146
0.473958 0.58656
0.470982 0.599888
0.49375 0.593043
0.506696 0.606928
0.502604 0.617139
0.554688 0.625678
0.569196 0.617367
0.521875 0.601343
0.629464 0.600097
0.502604 0.588778
0.601563 0.58235
0.71875 0.587121
0.75 0.573157
0.601563 0.568756
0.674479 0.561202
0.59375 0.558228
0.617188 0.549098
0.559896 0.549459
0.591146 0.537099
0.662946 0.534965
0.703125 0.55233
0.669271 0.543432
0.640625 0.524928
0.685547 0.513872
0.625 0.508493
0.642857 0.495801
0.721354 0.501759
0.635417 0.507543
0.6375 0.513027
0.578125 0.5077
0.578125 0.512215
0.602679 0.522513
0.541667 0.517257
0.559375 0.527649
0.557292 0.522783
0.544271 0.510339
0.5625 0.514237
0.554688 0.501148
0.570313 0.503999
0.575521 0.518068
0.552083 0.50625
0.580729 0.521037
0.505208 0.507737
0.494792 0.522072
0.4625 0.509361
0.488839 0.519943
0.53125 0.536414
0.46875 0.539096
0.533854 0.551151
0.565625 0.548013
0.521875 0.554709
0.544643 0.566803
0.520833 0.565577
0.502604 0.578581
0.496875 0.57956
0.484375 0.575826
0.48125 0.586236
0.497396 0.589701
0.511161 0.598773
0.524554 0.60325
0.544271 0.613412
0.503125 0.611115
0.587054 0.625269
0.625 0.625401
0.669271 0.637428
0.609375 0.638294
0.580729 0.632377
0.634375 0.644288
0.651042 0.64175
0.631696 0.656663
0.627604 0.652685
0.617188 0.636591
0.682292 0.647864
0.661458 0.631929
0.696875 0.642899
0.696429 0.627834
0.675 0.616766
0.725446 0.60497
0.708333 0.615075
0.79375 0.599087
0.765625 0.586816
0.794643 0.584162
0.765625 0.570365
0.804688 0.573802
0.768229 0.559727
0.7625 0.564269
0.705729 0.552956
0.682292 0.563598
0.625 0.545106
0.638021 0.534578
0.541667 0.527112
0.537946 0.513168
0.440104 0.509215
0.479167 0.493353
0.546875 0.493805
0.533854 0.475637
0.513393 0.475652
0.481771 0.456705
0.457589 0.45456
0.4875 0.469458
0.614583 0.482561
0.614583 0.47379
0.752604 0.48623
0.740625 0.49282
0.773438 0.496115
0.679688 0.491458
0.65625 0.499554
0.664063 0.502447
0.571429 0.502776
0.578125 0.504564
0.526042 0.502081
0.526042 0.502732
0.542411 0.498159
0.583333 0.49778
0.513021 0.504462
0.541667 0.498091
0.520833 0.507038
0.502604 0.499005
0.502604 0.48923
0.506696 0.487901
0.463542 0.478742
0.458333 0.475163
0.53125 0.48114
0.567708 0.491389
0.528646 0.48162
0.549479 0.493075
0.481771 0.481964
0.505208 0.493931
0.442708 0.481146
0.464286 0.494279
0.411458 0.477948
0.415179 0.487778
0.46875 0.503267
0.444196 0.505691
0.446429 0.486128
0.484375 0.503747
0.5125 0.515851
0.492188 0.524164
0.505208 0.528147
0.490625 0.536622
0.479167 0.541132
0.495536 0.550621
0.455729 0.552888
0.466146 0.564028
0.529018 0.563414
0.546875 0.572966
0.491071 0.578191
0.669271 0.582928
0.630208 0.591507
0.515625 0.590932
0.589286 0.60354
0.742188 0.600749
0.677083 0.611379
0.674107 0.616188
0.574219 0.609772
0.59375 0.615511
0.6625 0.624063
0.666667 0.626882
0.742188 0.635565
0.692708 0.634414
0.78125 0.641291
0.809375 0.645793
0.721354 0.647927
0.728125 0.65351
0.660156 0.663109
0.649554 0.65062
0.6125 0.664267
0.630208 0.676312
0.591146 0.672497
0.558036 0.686285
0.585938 0.680818
0.617188 0.667591
0.645833 0.676818
0.658854 0.663026
0.664063 0.672741
0.669271 0.657443
0.648438 0.667908
0.682292 0.647333
0.698661 0.651977
0.677083 0.633378
0.716146 0.635725
0.760417 0.620268
0.78125 0.624283
0.845982 0.608407
0.825521 0.603212
0.815104 0.591021
0.84375 0.594424
0.731771 0.581351
0.739583 0.573813
0.61875 0.567758
0.591518 0.554448
0.564732 0.555767
0.5 0.537418
0.509375 0.537414
0.429688 0.522871
0.393229 0.51959
0.403646 0.506598
0.320313 0.504558
0.385417 0.491607
0.408854 0.49217
0.395833 0.476625
0.453125 0.475989
0.361979 0.460366
0.46875 0.458114
0.380208 0.441689
0.419271 0.438648
0.417411 0.416563
0.40625 0.421797
0.432292 0.437448
0.368304 0.416429
0.390625 0.436528
0.379464 0.428235
0.403125 0.44565
0.385417 0.448576
0.445313 0.459657
0.533854 0.464615
0.455729 0.455292
0.638021 0.47015
0.716146 0.478434
0.690104 0.482038
0.615625 0.474962
0.642857 0.484424
0.721875 0.490049
0.71875 0.493545
0.736979 0.496145
0.861979 0.498797
0.846875 0.500324
0.697917 0.499273
0.835938 0.502436
0.661458 0.502371
0.759375 0.503638
0.625 0.50329
0.682292 0.5037
0.64375 0.503045
0.572917 0.501857
0.559896 0.501992
0.551339 0.499293
0.5625 0.500138
0.503125 0.497484
0.523438 0.495122
0.544271 0.493346
0.526042 0.489827
0.53125 0.486637
0.601563 0.491807
0.520833 0.483823
0.528646 0.490392
0.440104 0.481296
0.408854 0.474637
0.385417 0.471377
0.302083 0.465021
0.364583 0.461483
0.450521 0.468255
0.481771 0.458558
0.496875 0.465662
0.46875 0.457333
0.482143 0.470414
0.354911 0.460957
0.434375 0.472818
0.351563 0.470424
0.330357 0.457684
0.34375 0.469741
0.372768 0.463077
0.356771 0.449331
0.367188 0.452229
0.398438 0.463905
0.403125 0.473316
0.4625 0.475451
0.471354 0.467696
0.403646 0.453951
0.455357 0.455762
0.491071 0.473212
0.4375 0.443891
0.384375 0.444598
0.432292 0.449275
0.415625 0.44044
0.390625 0.44272
0.489583 0.45429
0.520833 0.460922
0.570313 0.464679
0.509375 0.470976
0.572917 0.475682
0.513021 0.482334
0.541667 0.48836
0.515625 0.49653
0.513021 0.491177
0.518229 0.506639
0.486979 0.510282
0.5 0.521093
0.502604 0.518038
0.455357 0.533376
0.5 0.535067
0.520833 0.545267
0.41875 0.5451
0.528125 0.552726
0.604167 0.556693
0.598958 0.548508
0.692708 0.561565
0.619792 0.568267
0.69375 0.572167
0.729167 0.579395
0.671875 0.575708
0.809896 0.586524
0.814732 0.591432
0.848958 0.596915
0.79375 0.591872
0.859375 0.601558
0.741071 0.608393
0.803571 0.609989
0.662946 0.619692
0.60625 0.617379
0.553571 0.625602
0.614583 0.621206
0.596354 0.629154
0.565104 0.631771
0.609375 0.634652
0.571875 0.635406
0.633929 0.638624
0.71875 0.638456
0.760417 0.643126
0.635417 0.642295
0.660714 0.648107
0.779018 0.649764
0.674479 0.655731
0.692708 0.659741
0.697917 0.664186
0.695313 0.670538
0.776042 0.67331
0.773438 0.681521
0.692708 0.679042
0.731771 0.690149
0.640625 0.689675
0.755208 0.697772
0.675 0.698203
0.580729 0.695783
0.744792 0.701743
0.648438 0.700207
0.5625 0.69464
0.650391 0.697514
0.575 0.690114
0.747396 0.703316
0.722656 0.702503
0.768229 0.701135
0.661458 0.694548
0.747396 0.698965
0.653646 0.692279
0.635417 0.685169
0.617188 0.688132
0.645833 0.682731
0.677083 0.69137
0.640625 0.683216
0.739583 0.691932
0.692708 0.685261
0.646875 0.676407
0.729911 0.675642
0.696875 0.667203
0.729167 0.661595
0.757813 0.668204
0.731771 0.65616
0.708333 0.647808
0.669271 0.644579
0.729167 0.634821
0.65625 0.634018
0.635417 0.641905
0.625 0.634436
0.643229 0.626309
0.770089 0.621105
0.734375 0.615516
0.854911 0.603481
0.807292 0.604981
0.825521 0.592189
0.802083 0.587497
0.75625 0.580237
0.648438 0.573305
0.635417 0.567368
0.714286 0.581177
0.632813 0.565753
0.486328 0.548568
0.540179 0.552914
0.40625 0.538648
0.410714 0.529741
0.449219 0.537496
0.45 0.541824
0.408854 0.530296
0.359375 0.516298
0.385417 0.524981
0.445313 0.537721
0.382813 0.523726
0.330357 0.508053
0.403646 0.512797
0.348958 0.501568
0.351563 0.497029
0.309896 0.487239
0.2875 0.492435
0.34375 0.478
0.309896 0.473067
0.303125 0.463901
0.341146 0.462376
0.303571 0.448284
0.309375 0.44818
0.341518 0.429107
0.325 0.43309
0.335938 0.41623
0.414063 0.401226
0.421875 0.393037
0.411458 0.369575
0.455729 0.384301
0.419643 0.346966
0.401042 0.372502
0.403646 0.400311
0.3875 0.391103
0.388393 0.36704
0.408854 0.399813
0.427083 0.383018
0.4375 0.413275
0.414063 0.403763
0.378125 0.427679
0.395833 0.436788
0.359375 0.446627
0.380208 0.437212
0.411458 0.457994
0.479167 0.463313
0.575521 0.472744
0.481771 0.470704
0.526042 0.482569
0.471354 0.481625
0.522321 0.491507
0.606771 0.491553
0.651042 0.497071
0.775 0.496857
0.830729 0.500288
0.643229 0.5008
0.796875 0.5025
0.911458 0.501932
0.815104 0.503463
0.692708 0.502849
0.617188 0.500553
0.690104 0.502406
0.627604 0.499612
0.690104 0.5013
0.604167 0.498477
0.598958 0.499466
0.591146 0.496966
0.557292 0.49657
0.625 0.494116
0.546875 0.49286
0.566964 0.48789
0.619792 0.490987
0.54375 0.48555
0.479911 0.479259
0.515625 0.482516
0.445313 0.473509
0.489583 0.478246
0.361979 0.468931
0.401042 0.463937
0.328125 0.459623
0.354167 0.454496
0.3125 0.451776
0.302083 0.455705
0.328125 0.446792
0.388021 0.451858
0.388021 0.442305
0.429688 0.448855
0.382813 0.439081
0.408854 0.446716
0.356771 0.437382
0.325893 0.447735
0.335938 0.452766
0.333333 0.43663
0.35 0.445304
0.368304 0.437616
0.34375 0.427329
0.386719 0.430822
0.395833 0.434937
0.35625 0.442892
0.40625 0.442952
0.417411 0.432973
0.368304 0.425879
0.415625 0.423916
0.450521 0.427192
0.432292 0.436287
0.430804 0.432162
0.432292 0.422579
0.34375 0.426324
0.283854 0.434007
0.276042 0.429564
0.263021 0.435552
0.302083 0.441517
0.273438 0.441776
0.31875 0.44729
0.424107 0.451346
0.356771 0.455486
0.476563 0.462122
0.528125 0.459808
0.572917 0.469042
0.53125 0.473627
0.575521 0.480994
0.523438 0.486902
0.497396 0.49465
0.473958 0.501859
0.433036 0.50979
0.458333 0.501842
0.484375 0.512848
0.465625 0.519428
0.384375 0.521838
0.440104 0.529619
0.470982 0.523748
0.502604 0.538595
0.55625 0.541102
0.647321 0.553664
0.549479 0.55024
0.457589 0.533511
0.401042 0.517572
0.489583 0.510448
0.421875 0.529238
0.382813 0.520421
0.372396 0.533959
0.457589 0.544369
0.515625 0.545606
0.5 0.554785
0.549107 0.561723
0.539063 0.565366
0.584375 0.573235
0.609375 0.576596
0.662946 0.585425
0.664063 0.590446
0.705357 0.582082
0.630208 0.565745
0.729167 0.569559
0.729167 0.581407
0.744792 0.592849
0.71875 0.596769
0.828125 0.604058
0.8375 0.600173
0.802083 0.60833
0.835938 0.614905
0.794271 0.619565
0.707589 0.626261
0.703125 0.619797
0.632813 0.627144
0.614583 0.634113
0.536458 0.6335
0.585938 0.628524
0.583333 0.633742
0.55625 0.63092
0.5625 0.634809
0.596875 0.636844
0.515625 0.637908
0.560268 0.637378
0.466146 0.637906
0.403646 0.638504
0.528125 0.639353
0.453125 0.640574
0.375 0.639036
0.4 0.640863
0.587891 0.644322
0.523438 0.641762
0.669271 0.644263
0.692708 0.648787
0.578125 0.648498
0.648438 0.652671
0.738281 0.655405
0.64375 0.658848
0.736979 0.665203
0.75 0.64738
0.796875 0.649849
0.763021 0.655067
0.726563 0.664089
0.776042 0.673575
0.739583 0.671947
0.768229 0.681987
0.794271 0.682429
0.822917 0.69047
0.776042 0.690682
0.830729 0.697317
0.785714 0.698682
0.867188 0.702762
0.859375 0.704168
0.877604 0.703272
0.966146 0.706388
0.959375 0.705686
0.848958 0.7027
0.916667 0.7053
0.989583 0.707121
0.921875 0.706111
0.809375 0.704059
0.959375 0.707271
0.852679 0.70515
0.963542 0.706713
0.859375 0.703807
0.957589 0.705201
0.940625 0.703414
0.833333 0.700897
0.916667 0.70079
0.791667 0.697204
0.74375 0.696846
0.85 0.697166
0.958333 0.699036
0.820313 0.693374
0.869792 0.69554
0.75 0.687312
0.801339 0.690591
0.755208 0.679807
0.885417 0.698481
0.840625 0.69625
0.901042 0.701123
0.963542 0.702855
0.981771 0.704889
0.96875 0.700427
0.986979 0.702683
0.99375 0.706842
0.984375 0.706162
0.994792 0.7075
0.736979 0.661457
0.734375 0.651271
0.744792 0.646986
0.747396 0.643786
0.645833 0.639159
0.665179 0.637104
0.602679 0.630315
0.622396 0.629996
0.614583 0.623094
0.60625 0.622053
0.6875 0.615059
0.723958 0.617242
0.799479 0.607833
0.802083 0.612466
0.6875 0.601878
0.770833 0.596168
0.604167 0.589832
0.408482 0.597268
0.383929 0.586174
0.645833 0.577753
0.450521 0.577284
0.648438 0.567772
0.466146 0.571912
0.664063 0.562414
0.546875 0.569926
0.705729 0.562509
0.642578 0.550651
0.75625 0.557954
0.773438 0.552286
0.715625 0.544179
0.825521 0.545869
0.645833 0.536192
0.541667 0.536158
0.424479 0.524949
0.534375 0.528164
0.377232 0.514616
0.307292 0.511119
0.291667 0.499286
0.289063 0.496604
0.252232 0.48568
0.246875 0.485193
0.291667 0.4911
0.244792 0.478327
0.304688 0.482462
0.268229 0.469237
0.190625 0.468089
0.21875 0.455995
0.283854 0.458854
0.302083 0.444069
0.239583 0.440703
0.289063 0.429025
0.252604 0.42821
0.315104 0.413455
0.242188 0.417599
0.328125 0.398242
0.265625 0.41156
0.275391 0.394178
0.285714 0.424653
0.380208 0.421243
0.302083 0.404786
0.171875 0.377259
0.135417 0.356062
0.098958 0.346362
0.067708 0.326234
0.1 0.33286
0.054688 0.307648
0.174107 0.314953
0.285156 0.361128
0.307292 0.332491
0.257813 0.296432
0.356771 0.307979
0.299479 0.274196
0.348958 0.282592
0.421875 0.317454
0.348958 0.292921
0.361979 0.329727
0.403125 0.346487
0.375 0.308301
0.414063 0.347741
0.419271 0.332578
0.40625 0.366852
0.4375 0.367669
0.410714 0.323437
0.450893 0.376387
0.442708 0.40352
0.46875 0.411318
0.414063 0.431365
0.419271 0.430562
0.403646 0.451285
0.399554 0.455477
0.411458 0.467226
0.48125 0.471543
0.404018 0.481
0.375 0.476928
0.414063 0.486764
0.442708 0.490689
0.5 0.489888
0.536458 0.49552
0.583333 0.496342
0.505208 0.495486
0.473958 0.49339
0.567708 0.495884
0.567708 0.497478
0.616071 0.496639
0.632813 0.503228
0.658854 0.500589
0.658854 0.493825
0.659375 0.496575
0.671875 0.490633
0.653646 0.487961
0.6 0.485391
0.557292 0.482103
0.434896 0.480572
0.455729 0.47501
0.359375 0.474241
0.395833 0.466261
0.419271 0.469316
0.401042 0.459709
0.333333 0.456711
0.315104 0.450088
0.286458 0.447669
0.322917 0.440668
0.310268 0.444522
0.333333 0.434179
0.354167 0.437571
0.299479 0.428405
0.364583 0.432874
0.351563 0.42401
0.328125 0.429697
0.333333 0.420913
0.335938 0.427839
0.372396 0.419037
0.325521 0.413105
0.338542 0.411441
0.351563 0.418057
0.302083 0.411338
0.351563 0.417758
0.34375 0.412597
0.440104 0.41918
0.398438 0.415385
0.333333 0.409611
0.403646 0.413494
0.380208 0.419446
0.388393 0.419056
0.354911 0.424273
0.35 0.424331
0.338542 0.42765
0.33125 0.4285
0.361607 0.425227
0.369792 0.429053
0.403646 0.433533
0.403646 0.435525
0.299479 0.432219
0.333333 0.437982
0.25 0.435446
0.28125 0.431678
0.274554 0.437523
0.296875 0.432734
0.2875 0.437524
0.3125 0.443213
0.289063 0.445473
0.320313 0.451466
0.28125 0.449244
0.363839 0.459819
0.356771 0.460444
0.479167 0.467914
0.494792 0.471827
0.473958 0.466452
0.515625 0.478998
0.536458 0.484441
0.515625 0.493659
0.455078 0.501854
0.572917 0.486809
0.404018 0.496313
0.303125 0.507656
0.319196 0.518952
0.283854 0.517025
0.278125 0.526657
0.307292 0.531995
0.283854 0.529924
0.4125 0.537125
0.46875 0.538715
0.635417 0.544037
0.671875 0.5461
0.528125 0.542212
0.615625 0.54853
0.783854 0.5535
0.602679 0.556807
0.846354 0.562306
0.731771 0.568777
0.838542 0.57201
0.815104 0.579289
0.661458 0.576403
0.725 0.585479
0.854167 0.589907
0.760417 0.59543
0.796875 0.603176
0.807292 0.60815
0.726563 0.599019
0.761161 0.611634
0.7 0.601496
0.85625 0.618642
0.809896 0.62417
0.856771 0.628336
0.755208 0.634447
0.765625 0.630371
0.721354 0.639648
0.679688 0.636227
0.671875 0.644055
0.638021 0.641249
0.635417 0.647602
0.617188 0.644995
0.559896 0.639143
0.541667 0.642523
0.59375 0.637703
0.482143 0.648078
0.377604 0.644629
0.466518 0.640275
0.388021 0.642667
0.40625 0.64011
0.408854 0.641543
0.441964 0.63901
0.408854 0.64065
0.382813 0.638726
0.428125 0.63801
0.403646 0.63793
0.403646 0.637981
0.388021 0.638203
0.356771 0.638117
0.328125 0.638524
0.302083 0.638745
0.375 0.639739
0.378125 0.639843
0.4125 0.641158
0.479167 0.641882
0.554688 0.640803
0.368304 0.639574
0.63125 0.642066
0.734375 0.640755
0.746875 0.640743
0.68125 0.641764
0.729911 0.641968
0.802083 0.639204
0.856771 0.639833
0.786458 0.635561
0.90625 0.637815
0.779018 0.630092
0.880208 0.635387
0.856771 0.627076
0.773438 0.621452
0.6375 0.624265
0.783854 0.618497
0.8125 0.624871
0.69375 0.617336
0.613839 0.608992
0.523438 0.612833
0.3875 0.604441
0.352679 0.605656
0.309375 0.599032
0.252604 0.596918
0.257813 0.592669
0.216146 0.591257
0.21875 0.587644
0.169271 0.587034
0.242188 0.583093
0.182292 0.583847
0.21875 0.57887
0.192708 0.582326
0.255208 0.576872
0.247396 0.583078
0.453125 0.57693
0.419271 0.58527
0.664063 0.577546
0.690104 0.57028
0.853125 0.571005
0.859375 0.564757
0.945313 0.567373
0.856771 0.560048
0.875 0.562885
0.854167 0.555311
0.821429 0.561422
0.830729 0.549269
0.78125 0.553836
0.720982 0.54076
0.760417 0.537939
0.609375 0.527058
0.606771 0.525834
0.525 0.514564
0.506696 0.507704
0.306641 0.497196
0.378125 0.489639
0.671875 0.526032
0.703125 0.510195
0.59375 0.489392
0.346354 0.47465
0.234375 0.478891
0.260417 0.481882
0.296875 0.490938
0.216146 0.467439
0.244792 0.471657
0.205729 0.457884
0.200521 0.462884
0.244792 0.475116
0.208333 0.449832
0.21875 0.444285
0.253125 0.43864
0.197917 0.431406
0.192708 0.436894
0.18125 0.424211
0.190104 0.452314
0.239583 0.445573
0.197917 0.462679
0.328125 0.457545
0.364583 0.439936
0.526042 0.452936
0.490625 0.437895
0.652344 0.448825
0.68125 0.463551
0.778646 0.46772
0.728125 0.460836
0.6875 0.448992
0.809896 0.465658
0.8375 0.471776
0.783854 0.481272
0.765625 0.476211
0.767578 0.453026
0.614583 0.433158
0.609375 0.431167
0.481771 0.414488
0.4375 0.414499
0.492188 0.426423
0.255208 0.395575
0.361979 0.395135
0.194196 0.3676
0.272321 0.373608
0.13125 0.350556
0.091146 0.335706
0.078125 0.328068
0.044271 0.306336
0.078125 0.316847
0.078125 0.288797
0.059896 0.299645
0.0875 0.278687
0.100446 0.282012
0.145833 0.261868
0.166667 0.260882
0.128125 0.275853
0.115625 0.292534
0.161458 0.284334
0.182292 0.26175
0.216146 0.267117
0.190104 0.244836
0.207589 0.243884
0.1625 0.230341
0.19375 0.221953
0.208333 0.222315
0.247396 0.249782
0.179688 0.22285
0.229167 0.255636
0.207589 0.222361
0.25 0.265943
0.203125 0.236182
0.290179 0.282624
0.2 0.243744
0.252604 0.27054
0.125 0.22208
0.138393 0.255612
0.265625 0.297779
0.308036 0.302586
0.427083 0.337956
0.471354 0.347951
0.419643 0.380612
0.5 0.378575
0.466518 0.406803
0.421875 0.406562
0.426339 0.41074
0.444196 0.428447
0.4125 0.437636
0.408854 0.434634
0.464286 0.460244
0.4375 0.456489
0.442708 0.476544
0.432292 0.47515
0.43125 0.465594
0.399554 0.49004
0.40625 0.484471
0.46875 0.492584
0.584821 0.502389
0.497768 0.506335
0.615625 0.513962
0.635417 0.512697
0.59375 0.525374
0.620536 0.521852
0.653646 0.509477
0.6125 0.514767
0.566964 0.504142
0.491071 0.514002
0.414063 0.500284
0.533854 0.494349
0.414063 0.489038
0.481771 0.486686
0.41875 0.481624
0.397321 0.479198
0.372768 0.493907
0.381696 0.484583
0.390625 0.468887
0.363839 0.464987
0.340625 0.458416
0.309375 0.454652
0.263393 0.448411
0.361979 0.458118
0.328125 0.447243
0.302083 0.438297
0.283854 0.439213
0.325 0.432293
0.317708 0.432247
0.3125 0.425863
0.270833 0.425756
0.283482 0.418206
0.299479 0.420322
0.315625 0.414127
0.335938 0.416245
0.330729 0.409879
0.316964 0.41032
0.296875 0.404744
0.268229 0.40507
0.25625 0.401686
0.225446 0.402389
0.2125 0.400022
0.274554 0.401142
0.195313 0.399519
0.213542 0.400362
0.265625 0.402342
0.192708 0.402806
0.283854 0.405965
0.321429 0.40605
0.25 0.407044
0.207589 0.405056
0.20625 0.401516
0.270833 0.403466
0.286458 0.408109
0.303125 0.409048
0.354167 0.413203
0.330078 0.415705
0.4 0.418761
0.369792 0.42458
0.3875 0.426216
0.414063 0.433789
0.403646 0.432434
0.446875 0.440429
0.398438 0.441309
0.392857 0.452288
0.372396 0.451315
0.372396 0.441739
0.393229 0.449961
0.348958 0.442571
0.353125 0.449052
0.273438 0.444893
0.335938 0.453329
0.302083 0.449015
0.273438 0.441091
0.338542 0.458688
0.265625 0.454256
0.354167 0.464084
0.419271 0.470568
0.475446 0.47534
0.466146 0.468777
0.575521 0.475058
0.552083 0.473576
0.59375 0.477408
0.580729 0.479514
0.565104 0.476728
0.521875 0.480913
0.46875 0.485757
0.445313 0.484626
0.368304 0.490707
0.385417 0.488586
0.321429 0.491966
0.228125 0.494125
0.255208 0.495149
0.253125 0.497923
0.323661 0.499182
0.25 0.505552
0.290625 0.508187
0.320313 0.506888
0.268229 0.51684
0.255208 0.516026
0.294271 0.528256
0.307292 0.528266
0.410714 0.544513
0.375 0.539075
0.571875 0.551468
0.635417 0.550717
0.520833 0.542086
0.729167 0.550879
0.754464 0.561647
0.828125 0.557279
0.8 0.550264
0.815625 0.565368
0.794271 0.573556
0.669643 0.573946
0.729167 0.58578