# vtk DataFile Version 2.0
AOOM data
ASCII
DATASET POLYDATA
POINTS 19243 float
-0.691517 18.3944 -12.1824
-0.149838 18.6867 -12.6019
-0.352228 18.7253 -13.0575
0.442346 19.1517 -13.4145
0.615195 19.0906 -12.4935
0.082614 18.6803 -11.8729
-0.459065 18.388 -11.4534
-1.02259 18.0947 -11.8318
-1.25504 18.1011 -12.5608
-1.67057 17.8187 -12.0025
-2.005 18.1523 -12.9211
-1.09208 18.7955 -13.4154
-1.69388 18.6848 -13.6003
-1.08724 19.3184 -14.1238
-0.248434 19.227 -13.7348
-0.420694 19.6406 -14.6852
0.290175 19.6682 -14.2213
0.208369 19.5745 -15.3143
0.910391 19.9515 -14.4984
1.21001 19.8515 -13.7573
1.80598 20.1395 -14.2592
1.96 19.7698 -13.4095
1.15923 19.3541 -13.1255
2.1313 19.0187 -12.8607
2.67307 19.3466 -13.3587
2.78808 18.6289 -12.8139
2.25804 18.3986 -12.1174
2.80786 18.0776 -12.6026
3.36626 18.4305 -12.9887
3.46464 17.6878 -12.5559
3.03445 17.2653 -12.3287
3.60499 17.0143 -12.7725
2.91129 16.5449 -12.5554
2.55292 16.9055 -11.8552
2.57024 16.0443 -11.9375
2.45421 16.4136 -11.2775
2.68407 17.0972 -11.0217
2.56397 17.6902 -10.9728
3.13455 17.6398 -10.3243
3.25466 17.0467 -10.3732
2.78245 16.3544 -10.5889
3.42495 16.3278 -10.1742
4.04674 16.7733 -10.1575
3.91593 17.8986 -10.0577
3.19581 18.5239 -9.97206
2.4723 18.7603 -10.3666
1.83423 18.7673 -11.3808
2.05066 18.985 -10.5701
1.1889 18.934 -10.8911
0.930961 18.9613 -11.5835
0.337579 18.8924 -11.3168
0.582228 19.0951 -10.4252
-0.422569 18.7622 -10.7681
-0.276718 19.4244 -10.0331
-1.05495 18.9391 -10.1815
-1.26679 18.1803 -10.5145
-1.78526 18.6918 -9.97646
-1.94218 17.8711 -10.2679
-1.93287 17.5386 -10.9569
-1.25748 17.8478 -11.2036
-2.16532 17.545 -11.6859
-2.33522 17.1169 -11.0961
-2.63336 17.2252 -11.811
-2.55248 17.7716 -12.469
-3.17514 17.2351 -12.5896
-2.80485 17.7786 -13.2604
-3.49815 17.3579 -13.3262
-3.0373 17.785 -13.9894
-2.12469 18.2178 -13.6408
-2.40847 18.0669 -14.5559
-1.78364 18.7184 -14.2587
-2.03943 18.6086 -15.2245
-1.3695 19.3262 -15.009
-1.35819 18.9225 -15.8457
-0.579955 19.4078 -15.6973
-0.665383 18.6177 -16.3846
0.223842 19.0353 -16.1721
0.110676 18.1131 -16.4641
0.93976 18.4333 -16.4946
0.880906 19.3062 -16.1914
1.60367 19.328 -15.8744
0.955633 19.5973 -15.3545
1.66358 19.9314 -15.1642
2.43555 19.5061 -15.4892
2.41104 19.9757 -14.8044
3.09778 19.5546 -14.8156
2.66595 19.8428 -14.025
3.29648 19.1941 -13.897
4.04381 19.3075 -14.6221
3.9636 18.8405 -13.5366
4.63748 19.1861 -14.1436
4.99029 19.112 -13.7348
4.52944 18.6849 -13.0716
4.15834 18.1572 -12.7729
4.85245 18.5621 -12.335
4.83684 17.8158 -11.8084
4.38636 17.2732 -12.5058
4.95695 17.2227 -11.8574
4.69993 16.1999 -12.6434
4.2441 16.5987 -12.838
3.62231 16.1531 -12.8547
3.72069 15.4104 -12.4219
3.06391 15.8002 -12.4687
3.07047 15.3432 -11.855
4.15885 14.9858 -12.3396
3.81205 14.7649 -11.1664
3.30526 15.2208 -11.1371
2.7121 15.7038 -11.1549
3.28269 15.6533 -10.5064
3.94822 14.832 -10.4734
4.06406 15.9122 -10.2397
4.51989 15.5133 -10.0452
5.14168 15.9589 -10.0284
4.90437 15.2948 -9.59781
6.04018 15.6992 -9.63185
5.70008 16.3119 -10.4145
5.0433 16.7016 -10.4613
5.69351 16.7689 -11.0282
4.60514 17.1263 -10.5436
6.58399 16.2695 -11.4551
6.22956 16.4666 -12.0706
5.45873 16.8913 -11.746
5.51121 16.4423 -12.3894
6.25213 16.034 -12.7013
5.47076 15.7751 -12.968
6.05278 15.1197 -13.0317
5.48808 14.914 -13.0502
4.74715 15.3222 -12.7383
5.302 14.4104 -12.8127
4.79996 14.069 -12.5335
5.2892 13.5026 -13.3304
4.65042 13.1943 -12.8088
4.35439 13.5642 -11.9613
4.17544 14.2798 -12.0071
3.83438 13.7792 -11.3892
4.28214 12.9217 -11.2672
3.97624 13.4387 -10.6066
3.71835 14.1485 -10.7292
4.04689 14.0909 -9.96529
4.30478 13.381 -9.84264
4.40901 14.029 -9.24022
4.27675 14.7744 -9.70952
4.91509 14.7185 -8.98814
5.08538 13.9996 -8.78911
5.70717 14.4452 -8.77237
5.60879 15.1879 -9.20522
6.26557 14.7981 -9.15845
6.41819 14.0534 -9.07172
6.84957 14.5647 -9.49835
6.69696 15.3094 -9.58508
6.98819 15.497 -9.98911
6.33141 15.8867 -10.0359
6.96002 16.0132 -10.7212
7.48186 15.2528 -10.5202
7.2968 15.7119 -11.5397
7.57629 14.9428 -11.2987
7.34765 15.0882 -12.1147
6.82272 15.9835 -12.0529
6.76471 15.2358 -12.691
7.2773 14.4376 -12.6807
6.6348 14.4643 -13.0954
7.09125 13.6393 -13.3042
5.96432 13.9782 -13.1358
7.66184 13.5889 -12.6558
7.51426 13.3476 -13.281
7.57108 13.0098 -14.0582
6.94154 13.5802 -14.2767
7.39883 13.4234 -15.0086
7.15811 14.2025 -15.2458
6.24837 14.0573 -14.5242
5.74352 13.5454 -14.195
5.55759 14.1326 -14.8445
5.15099 13.2441 -14.3496
4.89813 13.4499 -15.0028
4.46511 12.6986 -14.4728
4.66173 12.7906 -13.6455
3.5416 12.2749 -13.7524
3.99704 12.5831 -12.9704
3.20055 11.7743 -13.1345
3.41186 11.813 -12.061
4.02778 12.3249 -11.8537
4.16889 12.8346 -12.3353
3.98245 11.7625 -11.4125
4.52494 12.0736 -10.8514
4.15274 11.0436 -11.2135
5.02518 11.3724 -10.7689
5.11074 11.9814 -10.3387
4.61051 12.6826 -10.4213
5.09241 12.7756 -9.89754
5.89212 12.2403 -10.0721
5.65414 12.9333 -9.42061
4.94312 13.3251 -9.12126
5.72449 13.584 -8.85463
6.29504 13.333 -9.29842
6.57029 12.9387 -10.0851
6.77657 13.6928 -9.77187
7.20119 13.3134 -10.4732
7.26204 14.1497 -10.3042
7.62042 13.7891 -11.0043
8.00911 12.7189 -10.9079
7.92147 13.2706 -11.7073
7.66234 14.3297 -11.7871
8.61689 12.8799 -11.9164
8.3821 13.0024 -12.6342
8.97526 12.5193 -12.6165
9.17669 12.6522 -12.0835
8.76125 12.4626 -10.7987
9.41147 12.5298 -11.3656
9.88644 12.2546 -12.0959
9.72534 12.4815 -12.9707
9.1127 12.3435 -13.6461
8.16321 12.8384 -13.2708
8.29135 12.4233 -14.0367
8.96806 12.2401 -14.6464
8.00625 12.572 -14.9084
8.7958 12.6536 -15.5967
7.99828 13.1269 -15.6535
8.67634 13.5555 -16.1223
7.74662 13.9466 -15.845
8.77629 14.6249 -16.5747
7.72607 14.7189 -16.3604
7.20801 14.6447 -16.0026
7.33287 15.2063 -16.7158
6.41924 15.0429 -16.2069
6.50134 14.5923 -15.2926
5.81055 14.6676 -15.6129
5.79192 14.9336 -16.0985
5.17014 14.488 -16.1152
4.99985 15.2069 -16.3143
4.52764 14.5147 -16.5299
4.89225 13.8278 -15.7252
4.46813 13.5753 -16.9455
4.6717 13.1071 -15.9322
4.675 12.7149 -16.7206
4.55513 12.1177 -16.019
4.52836 12.472 -15.2338
3.97042 11.6808 -15.4441
3.8317 11.9991 -14.6453
3.48889 11.3211 -14.9707
3.06939 11.5827 -13.968
3.19931 10.7946 -14.6907
3.08671 10.7215 -14.0503
2.97068 11.0908 -13.3903
3.14657 10.2694 -13.2291
3.15797 10.9142 -12.4031
3.15057 9.73613 -12.5358
3.41692 9.68281 -11.8017
3.48622 10.855 -11.7145
4.18794 9.9923 -11.3095
3.32478 8.95714 -11.2568
4.31445 9.03723 -10.7529
5.05921 9.68045 -10.9305
4.85243 10.5534 -11.1722
5.63261 10.521 -10.6687
5.75207 9.61916 -10.1431
6.1754 10.5192 -9.85527
5.56382 11.6373 -10.4132
6.20632 11.6106 -9.99854
6.72043 11.2682 -9.53841
6.82811 12.0562 -9.98178
7.41412 11.7376 -9.75549
7.38651 12.4091 -10.3679
8.18403 11.9359 -10.3111
8.3362 11.4194 -9.5043
9.02899 11.9259 -10.1371
9.06765 11.3111 -9.36253
9.71361 11.7692 -9.60178
9.58406 12.2726 -10.8144
10.7093 11.8493 -10.3554
10.1414 12.1217 -11.3165
11.0677 11.4888 -11.0555
10.673 11.8347 -11.8967
11.2879 11.2756 -12.2517
11.4392 11.9866 -12.6148
10.5924 12.3276 -12.7113
11.2674 12.8494 -13.2173
10.6501 12.8046 -13.368
10.0335 12.6058 -13.3809
10.5205 12.9155 -14.0662
9.91687 12.5545 -14.3226
10.331 13.1623 -15.0729
9.63461 12.5622 -15.2078
9.63815 13.2236 -15.8603
10.6964 13.8934 -14.821
10.296 14.4829 -16.0686
9.49296 13.9999 -16.1886
9.49588 14.5446 -16.7261
9.89213 14.8663 -16.9645
9.52825 14.989 -17.722
8.76972 15.0819 -17.1884
8.56644 15.3209 -17.9841
7.95667 15.3656 -17.4754
8.11951 15.0146 -16.6215
7.63166 15.981 -18.3869
7.13331 15.8251 -17.7866
6.91096 16.6466 -18.3721
6.46577 16.1684 -17.9117
6.34376 15.7435 -17.0982
5.61905 16.1041 -17.2682
5.69354 15.6763 -16.5314
5.00276 15.7515 -16.8517
5.19689 16.2726 -17.5339
4.50611 16.3479 -17.8542
5.22152 16.8479 -18.1366
4.38538 17.2593 -18.3854
3.83992 16.4966 -18.509
3.83675 15.9052 -17.9255
3.83383 15.3606 -17.3881
4.41718 15.2336 -16.9446
3.89586 14.3729 -17.0985
3.30284 14.6302 -17.5855
3.7578 13.6381 -17.7528
3.00554 14.1937 -17.7406
2.86328 13.5192 -18.0727
3.55359 12.9329 -18.1268
4.27641 12.7868 -17.5568
4.18011 11.8775 -17.8327
4.39587 11.885 -17.0311
3.62418 11.3178 -17.9689
3.44405 10.6845 -16.4903
3.98173 11.2771 -16.2809
3.56971 10.8682 -15.6917
3.33053 10.241 -16.1312
3.44362 10.4062 -15.4125
3.35752 9.48499 -15.5744
3.21663 9.93342 -14.7729
3.23765 8.88773 -14.8728
2.95919 9.10485 -14.1003
3.10112 10.1408 -14.1171
3.00293 9.4871 -13.5435
2.65295 8.45089 -14.2979
2.17142 8.09113 -13.8245
2.4533 8.83164 -12.7894
1.98109 8.13941 -13.005
2.11225 8.33107 -12.1715
2.75419 9.00762 -11.9053
2.68284 8.28059 -11.523
2.21062 7.58836 -11.7387
2.68136 7.47198 -11.2717
3.15357 8.1642 -11.056
3.34954 7.43043 -10.6961
3.73629 8.11265 -10.3937
3.73765 8.51273 -10.8099
3.77157 7.35433 -9.81068
4.00144 8.03785 -9.55493
3.7746 7.70474 -8.92795
4.24681 8.39697 -8.71233
4.67323 8.80378 -8.7177
4.29704 8.70446 -8.2482
5.28836 9.14201 -8.32573
5.34322 8.88409 -9.42206
6.17822 8.84313 -8.90704
6.32266 9.56868 -9.4946
7.13589 9.53637 -9.11897
6.92816 10.4023 -9.32869
7.80751 10.014 -9.08374
7.5775 10.9725 -9.30493
8.45686 10.5842 -9.05998
8.64026 10.0855 -9.0186
9.11247 10.7777 -8.80298
9.28276 10.0588 -8.60396
9.90454 10.5044 -8.5872
9.80617 11.2471 -9.02007
10.4629 10.8574 -8.97328
10.7159 11.3924 -9.74171
10.9566 10.6132 -9.50443
11.2096 11.1482 -10.2729
11.4476 10.4928 -10.3917
11.295 10.8591 -11.2335
11.7009 10.0829 -11.064
11.5287 10.4964 -12.0144
12.1361 9.64503 -11.9142
12.1281 10.1999 -12.6593
11.9428 11.1043 -12.7646
12.7134 10.3217 -13.3921
12.67 11.451 -13.3377
12.1502 11.5948 -12.9142
12.6971 12.3043 -13.4705
11.9919 12.5178 -13.086
12.5445 13.0491 -13.5572
11.8877 13.4388 -13.604
12.7268 13.7276 -14.3438
11.9607 14.3123 -14.3896
11.232 13.6785 -14.0484
11.2699 14.3876 -14.7099
11.8608 14.6262 -14.9245
11.17 14.7015 -15.2448
12.6109 14.3796 -14.9564
12.511 14.6934 -15.4914
13.2185 14.1623 -15.471
12.9353 14.3004 -16.2732
12.2977 15.0171 -16.1997
13.5769 13.8017 -16.1712
13.7187 13.4611 -15.3885
13.8963 13.0362 -16.2652
13.561 13.6119 -17.3954
12.8269 14.5169 -17.4895
12.111 15.2123 -17.1204
[...]
POINT_DATA 19243
SCALARS ambient_occlusion float 2
LOOKUP_TABLE default
0.643229 0.510624
0.6625 0.510701
0.648438 0.518442
0.633929 0.517917
0.638393 0.502533
0.682292 0.504178
0.662946 0.504481
0.625 0.509624
0.65625 0.516732
0.65625 0.51203
0.680804 0.523723
0.661458 0.526145
0.684375 0.533146
0.705729 0.535995
0.653646 0.528357
0.796875 0.539309
0.692708 0.531506
0.866071 0.543677
0.861979 0.535525
0.710938 0.523117
0.8125 0.528746
0.59375 0.513907
0.6375 0.510401
0.522321 0.494596
0.489583 0.503513
0.384375 0.483793
0.332589 0.465524
0.271875 0.467713
0.386161 0.489042
0.200521 0.457613
0.177083 0.444777
0.083333 0.430108
0.065104 0.419321
0.169643 0.432162
0.0625 0.405355
0.1125 0.411658
0.182292 0.428589
0.291667 0.455057
0.289063 0.450083
0.166667 0.422637
0.119792 0.404666
0.109375 0.397525
0.151786 0.410005
0.28125 0.450144
0.4375 0.474344
0.380208 0.473703
0.525391 0.483716
0.578125 0.488821
0.716146 0.49502
0.696875 0.496991
0.71875 0.50047
0.726563 0.501278
0.739583 0.501997
0.74375 0.503704
0.734375 0.502512
0.658482 0.500787
0.692708 0.499827
0.524554 0.494409
0.646875 0.499274
0.640625 0.504843
0.630208 0.504137
0.459821 0.493822
0.505208 0.502609
0.648438 0.513946
0.502604 0.515075
0.645833 0.52722
0.549479 0.530416
0.629464 0.543587
0.625 0.53691
0.642857 0.550802
0.643229 0.542357
0.7 0.550501
0.817708 0.545548
0.835938 0.554191
0.901042 0.549319
0.817708 0.557709
0.825521 0.553559
0.713542 0.560804
0.747768 0.557522
0.853125 0.55017
0.830729 0.550075
0.8875 0.544281
0.882813 0.540417
0.84375 0.54668
0.809375 0.535571
0.712054 0.538
0.606771 0.522945
0.489583 0.517392
0.585938 0.536227
0.46875 0.514637
0.534375 0.53866
0.505208 0.531683
0.471875 0.509604
0.299107 0.480497
0.421875 0.497148
0.247396 0.461441
0.113839 0.436814
0.136719 0.414574
0.072266 0.400528
0.066406 0.41814
0.065104 0.40855
0.065104 0.388744
0.06875 0.399953
0.071429 0.382616
0.080729 0.36948
0.082589 0.357833
0.084375 0.372416
0.119792 0.391986
0.111979 0.381339
0.078125 0.353956
0.102679 0.374077
0.103125 0.349383
0.080729 0.354162
0.085938 0.336429
0.058036 0.336937
0.069196 0.355583
0.085938 0.380346
0.055804 0.382672
0.153646 0.412538
0.065104 0.360361
0.039063 0.37465
0.058594 0.388746
0.054688 0.38755
0.028646 0.373238
0.03125 0.38023
0.042411 0.37409
0.03125 0.375207
0.0625 0.377572
0.0625 0.37352
0.125 0.363056
0.203125 0.376527
0.190104 0.354027
0.138021 0.344281
0.13125 0.353801
0.117188 0.34018
0.162946 0.325311
0.125 0.326429
0.103125 0.340643
0.088542 0.331053
0.109375 0.316976
0.067708 0.321374
0.083333 0.334777
0.078125 0.324533
0.090625 0.316724
0.083333 0.319295
0.08125 0.327026
0.072917 0.325042
0.049479 0.317953
0.053571 0.326654
0.0625 0.33098
0.0625 0.334302
0.075 0.339097
0.0625 0.344677
0.023438 0.337177
0.041667 0.349773
0.033854 0.344572
0.023438 0.357338
0.026042 0.362547
0.023438 0.367564
0.044271 0.36991
0.08125 0.375659
0.167969 0.391181
0.143229 0.381397
0.118304 0.377587
0.152344 0.394369
0.232143 0.413967
0.278646 0.421192
0.348958 0.440701
0.367188 0.449962
0.309375 0.432678
0.279018 0.403967
0.377232 0.433388
0.328125 0.397855
0.359375 0.42031
0.265625 0.388966
0.226563 0.369036
0.203125 0.360976
0.200893 0.341438
0.205729 0.336414
0.239583 0.319077
0.221354 0.321197
0.2 0.336164
0.246875 0.306377
0.25 0.305121
0.239583 0.291874
0.236979 0.288322
0.200521 0.298505
0.205729 0.311927
0.111979 0.306542
0.194196 0.299283
0.078125 0.307831
0.083333 0.312389
0.085938 0.313057
0.05 0.312548
0.133929 0.311146
0.039063 0.319628
0.117188 0.326289
0.046875 0.331414
0.088542 0.342343
0.256696 0.341907
0.169271 0.360194
0.036458 0.357398
0.247768 0.370012
0.18125 0.379089
0.200521 0.394199
0.196875 0.390595
0.286458 0.353636
0.239583 0.378102
0.294271 0.403378
0.278646 0.412261
0.332589 0.42038
0.212054 0.399036
0.2875 0.420976
0.364583 0.439121
0.361979 0.437094
0.520833 0.457104
0.45 0.455834
0.515625 0.476977
0.417411 0.470996
0.462054 0.501928
0.421875 0.496147
0.395833 0.479717
0.433036 0.513512
0.430804 0.49197
0.390625 0.458703
0.377604 0.468019
0.40625 0.489907
0.425 0.479978
0.440104 0.499958
0.481771 0.48682
0.401786 0.456939
0.453125 0.473815
0.372396 0.439504
0.434375 0.452246
0.361979 0.42756
0.309896 0.409166
0.252604 0.401319
0.268229 0.381115
0.239583 0.376597
0.21875 0.353938
0.244792 0.35483
0.25 0.339764
0.20625 0.333133
0.265625 0.324378
0.241071 0.315066
0.263021 0.306667
0.252604 0.291885
0.263021 0.299601
0.274554 0.278683
0.28125 0.268393
0.296875 0.260146
0.296875 0.265771
0.259375 0.278974
0.333333 0.274893
0.299479 0.25912
0.332589 0.276101
0.304688 0.286807
0.309375 0.29021
0.309896 0.291947
0.226563 0.302393
0.273438 0.309659
0.226563 0.319058
0.307292 0.330111
0.296875 0.320658
0.291667 0.342282
0.304688 0.333904
0.304688 0.355522
0.265625 0.365731
0.229167 0.379301
0.229167 0.391154
0.177083 0.405769
0.273438 0.419794
0.270833 0.435096
0.357143 0.454149
0.328125 0.433717
0.341518 0.465796
0.355469 0.449226
0.359375 0.436821
0.359375 0.463516
0.390625 0.446748
0.434375 0.467911
0.478125 0.457536
0.522321 0.480568
0.361328 0.494621
0.401786 0.514982
0.4875 0.499125
0.416667 0.523558
0.359375 0.539391
0.330357 0.554771
0.432292 0.532975
0.403646 0.561708
0.458333 0.540392
0.4625 0.5167
0.504464 0.57179
0.520833 0.546275
0.591146 0.574041
0.505208 0.552697
0.471354 0.525195
0.408854 0.536185
0.414063 0.511174
0.412946 0.524836
0.453125 0.545222
0.493304 0.546089
0.583333 0.560508
0.705357 0.56385
0.614583 0.555396
0.528125 0.544547
0.517857 0.527074
0.478125 0.508318
0.536458 0.503546
0.55 0.521508
0.533482 0.504588
0.567708 0.53191
0.533854 0.52669
0.494792 0.500258
0.479167 0.475271
0.453125 0.475263
0.410714 0.447058
0.337054 0.458685
0.303571 0.423899
0.30625 0.41907
0.278646 0.397945
0.283854 0.395701
0.276042 0.374283
0.291667 0.371833
0.294271 0.352216
0.283854 0.34994
0.267857 0.329765
0.286458 0.336142
0.3125 0.319847
0.2375 0.333574
0.241071 0.315105
0.256696 0.305551
0.234375 0.298003
0.239583 0.286138
0.236979 0.287485
0.273438 0.270129
0.278125 0.273377
0.299479 0.257323
0.299479 0.251431
0.330729 0.237682
0.290625 0.234637
0.272321 0.24373
0.304688 0.219949
0.234375 0.223006
0.203125 0.204528
0.195313 0.213411
0.191964 0.224996
0.15625 0.203262
0.133929 0.210076
0.21875 0.237907
0.200893 0.232462
0.276042 0.25722
0.28125 0.263371
0.296875 0.279255
0.303571 0.292021
0.328125 0.300246
0.315104 0.313656
0.33125 0.311731
0.325521 0.328633
0.273438 0.324763
0.260417 0.344513
0.333333 0.348014
0.246875 0.361151
0.263021 0.369105
0.268229 0.381766
0.203125 0.39339
0.257813 0.408262
0.205729 0.4202
0.291667 0.434946
0.3125 0.447191
0.416667 0.459717
0.41875 0.468854
0.395089 0.467041
0.453125 0.49195
0.359375 0.495549
0.40625 0.479443
0.335938 0.500343
0.351563 0.482264
0.31875 0.502961
0.299479 0.49372
0.320313 0.516178
0.302083 0.509556
0.322917 0.488296
0.353125 0.505725
0.310268 0.525481
0.347656 0.512863
0.265625 0.530275
0.23125 0.543792
0.244792 0.549797
0.257813 0.563147
0.256696 0.551055
0.271875 0.56677
0.309375 0.55705
0.332589 0.577194
0.377232 0.586406
0.323661 0.581081
0.25625 0.566871
0.25625 0.550613
0.323661 0.527223
0.325521 0.543041
0.286458 0.565539
0.330729 0.561621
0.367188 0.585117
0.348958 0.582123
0.408854 0.604706
0.377604 0.603242
0.34375 0.58251
0.403646 0.604619
0.411458 0.587667
0.414063 0.608383
0.44375 0.595623
0.528646 0.612928
0.536458 0.595748
0.552083 0.625439
0.685268 0.632034
0.645833 0.617567
0.678571 0.60035
0.819196 0.627445
0.838542 0.614599
0.778646 0.59383
0.604167 0.575976
0.645833 0.575232
0.486979 0.55784
0.832589 0.587858
0.746875 0.573209
0.825521 0.57667
0.809896 0.586857
0.856771 0.599688
0.789063 0.593833
0.74375 0.583848
0.816964 0.576104
0.835938 0.569479
0.882813 0.568968
0.869792 0.565556
0.803125 0.563251
0.742188 0.560207
0.742188 0.563194
0.671875 0.559068
0.640625 0.552804
0.616071 0.555615
0.587054 0.540533
0.572917 0.549444
0.505208 0.56018
0.486979 0.559061
0.542411 0.548534
0.4375 0.56222
0.5375 0.559233
0.517578 0.550657
0.525 0.56512
0.546875 0.571024
0.549479 0.563746
0.536458 0.546175
0.494792 0.524345
0.546875 0.526249
0.4375 0.496208
0.473958 0.508873
0.330729 0.480596
0.447917 0.497505
0.299479 0.469737
0.21875 0.45339
0.236979 0.44513
0.239583 0.431369
0.253125 0.436238
0.265625 0.415462
0.240625 0.41422
0.272321 0.393619
0.203125 0.406786
0.242188 0.385939
0.255208 0.368253
0.180804 0.363764
0.229167 0.34707
0.197917 0.341097
0.221354 0.328487
0.213542 0.323113
0.234375 0.313659
0.236607 0.303549
0.25 0.30023
0.25 0.288228
0.234375 0.285558
0.292411 0.270183
0.299479 0.283676
0.339286 0.262002
0.287946 0.243948
0.323661 0.237145
0.29375 0.224328
0.322917 0.221521
0.272321 0.20442
0.296875 0.201039
0.223958 0.185129
0.25 0.184342
0.225 0.190067
0.234375 0.178237
0.205357 0.169085
0.205729 0.168743
0.146875 0.155551
0.129464 0.148631
0.192708 0.165412
0.158482 0.184255
0.151042 0.165967
0.138021 0.185511
0.114583 0.166613
0.096354 0.18605
0.096875 0.168344
0.082589 0.184569
0.1 0.204629
0.117188 0.213107
0.075521 0.194465
0.088542 0.220565
0.196429 0.245772
0.177083 0.246555
0.244792 0.270878
0.273438 0.278082
0.289063 0.297117
0.273438 0.303503
0.278646 0.321541
0.357143 0.320389
0.315104 0.344225
0.21875 0.342889
0.315625 0.36009
0.279018 0.365845
0.371875 0.37803
0.401786 0.37203
0.361979 0.397923
0.337054 0.396596
0.333333 0.421752
0.296875 0.425862
0.283854 0.44486
0.28125 0.451021
0.240625 0.464289
0.334821 0.478149
0.21875 0.484866
0.301339 0.505508
0.210938 0.507726
0.303125 0.519663
0.434375 0.523085
0.471354 0.522067
0.630208 0.534802
0.713542 0.538983
0.609375 0.52674
0.457589 0.502648
0.51875 0.514513
0.544271 0.534962
0.403646 0.516519
0.421875 0.543069
0.341146 0.519683
0.340625 0.539445
0.403125 0.557345
0.337054 0.553222
0.339286 0.524107
0.320313 0.538293
0.430804 0.579017
0.557292 0.571455
0.606771 0.595234
0.518229 0.60236
0.421875 0.594556
0.505208 0.610376
0.426339 0.602126
0.570313 0.618626
0.497396 0.617951
0.475 0.607156
0.567708 0.621428
0.489583 0.605913
0.619141 0.630065
0.419271 0.607173
0.565104 0.628013
0.4375 0.609776
0.296875 0.58608
0.628125 0.630167
0.515625 0.624692
0.779018 0.642518
0.588542 0.636697
0.484375 0.621451
0.557292 0.634484
0.4375 0.622233
0.509375 0.635248
0.54375 0.631712
0.494792 0.621677
0.658854 0.634841
0.638393 0.64187
0.705729 0.645278
0.661458 0.639594
0.773438 0.649701
0.768229 0.646438
0.895833 0.654849
0.877604 0.65385
0.817708 0.644317
0.828125 0.652071
0.848958 0.643491
0.825 0.633638
0.848958 0.654352
0.8125 0.644581
0.815104 0.656494
0.783854 0.647675
0.828125 0.633245
0.752604 0.637762
0.807292 0.622936
0.763021 0.627658
0.856771 0.614028
0.856771 0.60609
0.911458 0.617841
0.901042 0.605917
0.960938 0.608055
0.875 0.598238
0.854167 0.595404
0.785714 0.585024
0.6875 0.578397
0.765625 0.567027
0.770833 0.574829
0.809375 0.565384
0.791667 0.568778
0.832031 0.559321
0.828125 0.565409
0.752604 0.562722
0.731771 0.56427
0.871875 0.565887
0.606771 0.564093
0.625 0.561976
0.497768 0.56361
0.458333 0.566451
0.4375 0.568784
0.43125 0.56607
0.453125 0.570512
0.442708 0.565982
0.445313 0.571741
0.393229 0.56711
0.398438 0.573273
0.378125 0.569474
0.432292 0.574917
0.477679 0.569258
0.533854 0.578144
0.549479 0.575081
0.544271 0.583804
0.549479 0.582714
0.570313 0.59079
0.609375 0.591728
0.606771 0.583454
0.6875 0.593453
0.726563 0.585377
0.628125 0.575865
0.679688 0.575203
0.817708 0.586718
0.771875 0.575687
0.588542 0.56301
0.752604 0.567806
0.630208 0.548695
0.700521 0.555174
0.630208 0.533124
0.65625 0.539585
0.55625 0.519711
0.555804 0.519215
0.651042 0.546973
0.559896 0.533162
0.50625 0.509861
0.401786 0.487099
0.529018 0.489849
0.31875 0.468228
0.263393 0.455541
0.265625 0.446945
0.209375 0.43624
0.2125 0.436521
0.197917 0.421266
0.223958 0.425594
0.189732 0.42198
0.195313 0.402082
0.154018 0.395004
0.19375 0.383347
0.195313 0.371617
0.229911 0.415446
0.195313 0.395073
0.15625 0.377446
0.263021 0.38224
0.243304 0.362074
0.215625 0.360388
0.223214 0.340655
0.195313 0.351709
0.19375 0.334838
0.197917 0.31942
0.272321 0.317203
0.252604 0.29922
0.291667 0.292413
0.303125 0.28097
0.274554 0.268987
0.303125 0.304649
0.301339 0.285033
0.299479 0.263043
0.291667 0.249896
0.296875 0.251211
0.275 0.239195
0.296875 0.233724
0.320313 0.225029
0.364583 0.217693
0.309896 0.207493
0.296875 0.216126
0.25 0.199812
0.212054 0.187123
0.21875 0.185087
0.160714 0.166875
0.128125 0.17043
0.067708 0.155909
0.05625 0.150057
0.130208 0.152493
0.028646 0.141253
0.010417 0.146192
0.018229 0.13296
0.033854 0.128867
0.048828 0.135029
0.015625 0.124035
0.039063 0.120828
0.054688 0.124564
0.065104 0.1404
0.084821 0.128042
0.073661 0.111864
0.085938 0.113444
0.109375 0.12415
0.09375 0.135738
0.136161 0.131091
0.130208 0.148731
0.140625 0.148068
0.104911 0.129984
0.111607 0.148859
0.085938 0.131977
0.09375 0.142297
0.060268 0.158424
0.039063 0.143235
0.05 0.154548
0.054688 0.171164
0.035714 0.15903
0.036458 0.179591
0.025391 0.167984
0.03125 0.187116
0.03125 0.201492
0.022321 0.205154
0.072917 0.225705
0.080729 0.2334
0.182292 0.250546
0.263021 0.260688
0.309375 0.270725
0.265625 0.269406
0.385417 0.288989
0.309896 0.291963
0.434375 0.308177
0.510417 0.310043
0.427083 0.33174
0.486979 0.33707
0.439732 0.36555
0.369792 0.351419
0.425 0.376829
0.372396 0.398095
0.393229 0.398435
0.367188 0.424404
0.361979 0.422772
0.310268 0.450993
0.333333 0.450465
0.301339 0.476305
0.273438 0.476036
0.2625 0.462801
0.307292 0.444274
0.236979 0.46334
0.216146 0.479514
0.21875 0.494202
0.2 0.495634
0.221354 0.511316
0.223958 0.509878
0.450521 0.530535
0.375 0.528525
0.662946 0.550881
0.674479 0.544921
0.528646 0.532585
0.75625 0.542998
0.911458 0.553388
0.856771 0.547773
0.919271 0.560156
0.856771 0.554495
0.880208 0.568679
0.821875 0.562716
0.760417 0.546807
0.645089 0.561699
0.830357 0.580246
0.747768 0.590805
0.783854 0.60022
0.78125 0.612305
0.796875 0.61123
0.875 0.625689
0.895833 0.625858
0.682292 0.613964
0.768229 0.627338
0.598958 0.618376
0.783854 0.629446
0.669271 0.623378
0.80625 0.631291
0.765625 0.628651
0.901042 0.635455
0.770833 0.633323
0.625 0.626139
0.645833 0.629242
0.786458 0.637868
0.671875 0.63515
0.851563 0.643837
0.776042 0.64457
0.945313 0.650599
0.914063 0.654239
0.804688 0.649099
0.830729 0.659261
0.815104 0.65732
0.789063 0.64454
0.888021 0.655382
0.807292 0.643177
0.927083 0.654482
0.9375 0.663282
0.959821 0.662778
0.893229 0.655192
0.890625 0.661316
0.888021 0.656779
0.78125 0.648783
0.84375 0.652614
0.635417 0.644832
0.75 0.649459
0.604167 0.643151
0.75 0.649287
0.875 0.654045
0.835938 0.653907
0.740625 0.649241
0.822917 0.65245
0.942708 0.656951
0.875 0.65531
0.963542 0.658833
0.997396 0.659525
0.96875 0.661287
0.948661 0.660356
0.924479 0.662979
0.945313 0.664606
0.921875 0.660335
0.916667 0.667028
0.879464 0.664074
0.853125 0.669885
0.848958 0.669716
0.834375 0.664269
0.834821 0.667656
0.8125 0.658693
0.763021 0.673416
0.757813 0.672691
0.791667 0.667648
0.783854 0.660352
0.723958 0.650206
0.664063 0.651446
0.666667 0.64006
0.743304 0.63956
0.799479 0.628822
0.830729 0.624928
0.925 0.618366
0.877232 0.608731
0.770833 0.618392
0.739583 0.60104
0.79375 0.631435
0.73125 0.628382
0.631696 0.612042
0.662946 0.634391
0.518229 0.617633
0.555804 0.592306
0.632813 0.588476
0.5625 0.568671
0.588542 0.569743
0.6875 0.584909
0.619792 0.57267
0.554688 0.553286
0.518229 0.548956
0.539063 0.54492
0.497396 0.525081
0.505208 0.519058
0.606771 0.541441
0.5625 0.518063
0.424479 0.48937
0.425 0.489567
0.28125 0.453906
0.350446 0.475336
0.21875 0.439571
0.503906 0.513941
0.5125 0.500575
0.455729 0.484097
0.640625 0.509215
0.585938 0.498261
0.710938 0.520241
0.632813 0.51121
0.515625 0.492985
0.671875 0.5068
0.698661 0.50033
0.765625 0.511773
0.745536 0.507438
0.765625 0.516967
0.765625 0.513055
0.75 0.506334
0.799479 0.508682
0.771875 0.50383
0.755208 0.502986
0.698661 0.517657
0.726563 0.509429
0.598958 0.501551
0.5625 0.496223
0.414063 0.492707
0.302083 0.48812
0.265625 0.482833
0.145833 0.480036
0.229167 0.485658
0.153646 0.477709
0.203125 0.483353
0.122396 0.475743
0.114583 0.480583
0.273438 0.490551
0.184896 0.486013
0.34375 0.500399
0.236979 0.490401
0.335938 0.504211
0.419271 0.517403
0.257813 0.4932
0.338542 0.506638
0.270833 0.49504
0.4375 0.5067
0.470703 0.52365
0.382813 0.520367
0.504464 0.535841
0.455729 0.536637
0.588542 0.549033
0.631696 0.553929
0.5875 0.543994
0.617188 0.556044
0.665625 0.558976
0.640625 0.565874
0.613839 0.567068
0.622396 0.573993
0.645833 0.576469
0.56875 0.573728
0.596354 0.567557
0.648438 0.576199
0.642857 0.571435
0.682292 0.559052
0.71875 0.563372
0.674479 0.57231
0.752604 0.566526
0.729167 0.558202
0.765625 0.561891
0.716146 0.568243
0.742188 0.564301
0.609375 0.568781
0.591146 0.566101
0.475446 0.570679
0.5625 0.572725
0.473958 0.575939
0.460938 0.573577
0.458333 0.578393
0.450521 0.575444
0.486979 0.580091
0.419271 0.576974
0.507813 0.58169
0.414063 0.578551
0.528646 0.583506
0.440625 0.580156
0.5625 0.585166
0.606771 0.588581
0.63125 0.590878
0.614583 0.590566
0.591518 0.5959
0.572917 0.596589
0.559896 0.600542
0.559896 0.602558
0.589286 0.599052
0.636719 0.604465
0.731771 0.606476
0.729167 0.600465
0.768229 0.609299
0.7875 0.602222
0.823661 0.610399
0.786458 0.596761
0.828125 0.601326
0.821875 0.61673
0.794271 0.614323
0.71875 0.597667
0.682292 0.610227
0.653125 0.594976
0.635417 0.603179
0.617188 0.58361
0.703125 0.621927
0.705729 0.614586
0.613839 0.591069
0.618304 0.604198
0.59375 0.584935
0.55 0.574452
0.59375 0.569517
0.5625 0.556623
0.536458 0.568273
0.549479 0.545646
0.583333 0.561305
0.635417 0.533417
0.554688 0.519591
0.638021 0.504792
0.664063 0.518246
0.630208 0.489987
0.583333 0.477171
0.619792 0.463735
0.494792 0.452666
0.401042 0.462134
0.307292 0.438473
0.442708 0.432622
0.622396 0.442496
0.54375 0.428049
0.396875 0.419578
0.533482 0.415843
0.333333 0.406895
0.460938 0.401845
0.3125 0.394913
0.372396 0.389712
0.510417 0.397494
0.40625 0.387458
0.3125 0.375784
0.390625 0.381625
0.35625 0.370367
0.278646 0.358821
0.274554 0.360192
0.3 0.344969
0.291667 0.341162
0.301339 0.32493
0.294271 0.34109
0.309896 0.322364
0.325521 0.304922
0.317708 0.305051
0.325521 0.288938
0.270833 0.29035
0.309896 0.275722
0.30625 0.273815
0.318359 0.257268
0.31875 0.266717
0.321875 0.256531
0.320313 0.243175
0.304688 0.236025
0.322917 0.244367
0.333333 0.227183
0.328125 0.21878
0.340625 0.213348
0.322917 0.203419
0.303571 0.200347
0.265625 0.193199
0.165179 0.181266
0.220982 0.188349
0.098958 0.168604
0.0625 0.162009
0.036458 0.150845
0.070313 0.156196
0.066964 0.137774
0.015625 0.135536
0.044643 0.121621
0.040625 0.12524
0.049479 0.115203
0.036458 0.122173
0.041667 0.113023
0.033854 0.119364
0.026042 0.112271
0.028125 0.117507
0.033854 0.112498
0.026042 0.106176
0.034375 0.1069
0.028646 0.11313
0.052083 0.104038
0.044271 0.100241
0.064732 0.0936782
0.090625 0.100402
0.111979 0.0923298
0.101563 0.101845
0.117188 0.0926085
0.109375 0.102635
0.09375 0.0933819
0.080729 0.102517
0.100446 0.114397
0.090625 0.110267
0.090625 0.119581
0.091146 0.114406
0.060268 0.102647
0.078125 0.107494
0.09375 0.119295
0.069196 0.11213
0.084375 0.122832
0.052083 0.121685
0.057292 0.131773
0.028646 0.13198
0.033854 0.122349
0.026042 0.132482
0.044643 0.143893
0.023438 0.141742
0.023438 0.148507
0.015625 0.151867
0.018229 0.143853
0.0125 0.153887
0.015625 0.148938
0.01875 0.159995
0.006696 0.159377
0.013021 0.172982
0.005208 0.17791
0.018229 0.191948
0.028125 0.184424
0.007813 0.198681
0.033854 0.216107
0.008929 0.225331
0.114583 0.245392
0.148438 0.259195
0.028646 0.241535
0.1875 0.270255
0.379464 0.294526
0.359375 0.280448
0.440625 0.309333
0.513021 0.310127
0.442708 0.286423
0.484375 0.339282
0.48125 0.323532
0.460938 0.322896
0.497768 0.352433
0.479911 0.349515
0.419271 0.378466
0.441406 0.377163
0.470982 0.37637
0.466518 0.401114
0.484375 0.406599
0.494792 0.430787
0.471875 0.427741
0.471354 0.453258
0.453125 0.442761
0.473214 0.409517
0.429688 0.387783
0.46875 0.367237
0.453125 0.398024
0.421875 0.432024
0.359375 0.426153
0.382813 0.453734
0.473958 0.461079