# vtk DataFile Version 2.0
AOOM data
ASCII
DATASET POLYDATA
POINTS 19243 float
-0.0138303 0.367888 -0.243648
-0.00299676 0.373734 -0.252038
-0.00704456 0.374506 -0.26115
0.00884692 0.383034 -0.26829
0.0123039 0.381812 -0.24987
0.00165228 0.373606 -0.237458
-0.0091813 0.36776 -0.229068
-0.0204518 0.361894 -0.236636
-0.0251008 0.362022 -0.251216
-0.0334114 0.356374 -0.24005
-0.0401 0.363046 -0.258422
-0.0218416 0.37591 -0.268308
-0.0338776 0.373696 -0.272006
-0.0217448 0.386368 -0.282476
-0.00496868 0.38454 -0.274696
-0.00841388 0.392812 -0.293704
0.0058035 0.393364 -0.284426
0.00416738 0.39149 -0.306286
0.0182078 0.39903 -0.289968
0.0242002 0.39703 -0.275146
0.0361196 0.40279 -0.285184
0.0392 0.395396 -0.26819
0.0231846 0.387082 -0.26251
0.042626 0.380374 -0.257214
0.0534614 0.386932 -0.267174
0.0557616 0.372578 -0.256278
0.0451608 0.367972 -0.242348
0.0561572 0.361552 -0.252052
0.0673252 0.36861 -0.259774
0.0692928 0.353756 -0.251118
0.060689 0.345306 -0.246574
0.0720998 0.340286 -0.25545
0.0582258 0.330898 -0.251108
0.0510584 0.33811 -0.237104
0.0514048 0.320886 -0.23875
0.0490842 0.328272 -0.22555
0.0536814 0.341944 -0.220434
0.0512794 0.353804 -0.219456
0.062691 0.352796 -0.206486
0.0650932 0.340934 -0.207464
0.055649 0.327088 -0.211778
0.068499 0.326556 -0.203484
0.0809348 0.335466 -0.20315
0.0783186 0.357972 -0.201154
0.0639162 0.370478 -0.199441
0.049446 0.375206 -0.207332
0.0366846 0.375346 -0.227616
0.0410132 0.3797 -0.211402
0.023778 0.37868 -0.217822
0.0186192 0.379226 -0.23167
0.00675158 0.377848 -0.226336
0.0116446 0.381902 -0.208504
-0.00845138 0.375244 -0.215362
-0.00553436 0.388488 -0.200662
-0.021099 0.378782 -0.20363
-0.0253358 0.363606 -0.21029
-0.0357052 0.373836 -0.199529
-0.0388436 0.357422 -0.205358
-0.0386574 0.350772 -0.219138
-0.0251496 0.356956 -0.224072
-0.0433064 0.3509 -0.233718
-0.0467044 0.342338 -0.221922
-0.0526672 0.344504 -0.23622
-0.0510496 0.355432 -0.24938
-0.0635028 0.344702 -0.251792
-0.056097 0.355572 -0.265208
-0.069963 0.347158 -0.266524
-0.060746 0.3557 -0.279788
-0.0424938 0.364356 -0.272816
-0.0481694 0.361338 -0.291118
-0.0356728 0.374368 -0.285174
-0.0407886 0.372172 -0.30449
-0.02739 0.386524 -0.30018
-0.0271638 0.37845 -0.316914
-0.0115991 0.388156 -0.313946
-0.0133077 0.372354 -0.327692
0.00447684 0.380706 -0.323442
0.00221352 0.362262 -0.329282
0.0187952 0.368666 -0.329892
0.0176181 0.386124 -0.323828
0.0320734 0.38656 -0.317488
0.0191127 0.391946 -0.30709
0.0332716 0.398628 -0.303284
0.048711 0.390122 -0.309784
0.0482208 0.399514 -0.296088
0.0619556 0.391092 -0.296312
0.053319 0.396856 -0.2805
0.0659296 0.383882 -0.27794
0.0808762 0.38615 -0.292442
0.079272 0.37681 -0.270732
0.0927496 0.383722 -0.282872
0.0998058 0.38224 -0.274696
0.0905888 0.373698 -0.261432
0.0831668 0.363144 -0.255458
0.097049 0.371242 -0.2467
0.0967368 0.356316 -0.236168
0.0877272 0.345464 -0.250116
0.099139 0.344454 -0.237148
0.0939986 0.323998 -0.252868
0.084882 0.331974 -0.25676
0.0724462 0.323062 -0.257094
0.0744138 0.308208 -0.248438
0.0612782 0.316004 -0.249374
0.0614094 0.306864 -0.2371
0.083177 0.299716 -0.246792
0.076241 0.295298 -0.223328
0.0661052 0.304416 -0.222742
0.054242 0.314076 -0.223098
0.0656538 0.313066 -0.210128
0.0789644 0.29664 -0.209468
0.0812812 0.318244 -0.204794
0.0903978 0.310266 -0.200904
0.102834 0.319178 -0.200568
0.0980874 0.305896 -0.191956
0.120804 0.313984 -0.192637
0.114002 0.326238 -0.20829
0.100866 0.334032 -0.209226
0.11387 0.335378 -0.220564
0.0921028 0.342526 -0.210872
0.13168 0.32539 -0.229102
0.124591 0.329332 -0.241412
0.109175 0.337826 -0.23492
0.110224 0.328846 -0.247788
0.125043 0.32068 -0.254026
0.109415 0.315502 -0.25936
0.121056 0.302394 -0.260634
0.109762 0.29828 -0.261004
0.094943 0.306444 -0.254766
0.10604 0.288208 -0.256254
0.0959992 0.28138 -0.25067
0.105784 0.270052 -0.266608
0.0930084 0.263886 -0.256176
0.0870878 0.271284 -0.239226
0.0835088 0.285596 -0.240142
0.0766876 0.275584 -0.227784
0.0856428 0.258434 -0.225344
0.0795248 0.268774 -0.212132
0.074367 0.28297 -0.214584
0.0809378 0.281818 -0.199306
0.0860956 0.26762 -0.196853
0.0881802 0.28058 -0.184804
0.085535 0.295488 -0.19419
0.0983018 0.29437 -0.179763
0.101708 0.279992 -0.175782
0.114143 0.288904 -0.175447
0.112176 0.303758 -0.184104
0.125311 0.295962 -0.183169
0.128364 0.281068 -0.181434
0.136991 0.291294 -0.189967
0.133939 0.306188 -0.191702
0.139764 0.30994 -0.199782
0.126628 0.317734 -0.200718
0.1392 0.320264 -0.214424
0.149637 0.305056 -0.210404
0.145936 0.314238 -0.230794
0.151526 0.298856 -0.225974
0.146953 0.301764 -0.242294
0.136454 0.31967 -0.241058
0.135294 0.304716 -0.25382
0.145546 0.288752 -0.253614
0.132696 0.289286 -0.261908
0.141825 0.272786 -0.266084
0.119286 0.279564 -0.262716
0.153237 0.271778 -0.253116
0.150285 0.266952 -0.26562
0.151422 0.260196 -0.281164
0.138831 0.271604 -0.285534
0.147977 0.268468 -0.300172
0.143162 0.28405 -0.304916
0.124967 0.281146 -0.290484
0.11487 0.270908 -0.2839
0.111152 0.282652 -0.29689
0.10302 0.264882 -0.286992
0.0979626 0.268998 -0.300056
0.0893022 0.253972 -0.289456
0.0932346 0.255812 -0.27291
0.070832 0.245498 -0.275048
0.0799408 0.251662 -0.259408
0.064011 0.235486 -0.26269
0.0682372 0.23626 -0.24122
0.0805556 0.246498 -0.237074
0.0833778 0.256692 -0.246706
0.079649 0.23525 -0.22825
0.0904988 0.241472 -0.217028
0.0830548 0.220872 -0.22427
0.100504 0.227448 -0.215378
0.102215 0.239628 -0.206774
0.0922102 0.253652 -0.208426
0.101848 0.255512 -0.197951
0.117842 0.244806 -0.201442
0.113083 0.258666 -0.188412
0.0988624 0.266502 -0.182425
0.11449 0.27168 -0.177093
0.125901 0.26666 -0.185968
0.131406 0.258774 -0.201702
0.135531 0.273856 -0.195437
0.144024 0.266268 -0.209464
0.145241 0.282994 -0.206084
0.152408 0.275782 -0.220086
0.160182 0.254378 -0.218158
0.158429 0.265412 -0.234146
0.153247 0.286594 -0.235742
0.172338 0.257598 -0.238328
0.167642 0.260048 -0.252684
0.179505 0.250386 -0.25233
0.183534 0.253044 -0.24167
0.175225 0.249252 -0.215974
0.188229 0.250596 -0.227312
0.197729 0.245092 -0.241918
0.194507 0.24963 -0.259414
0.182254 0.24687 -0.272922
0.163264 0.256768 -0.265416
0.165827 0.248466 -0.280734
0.179361 0.244802 -0.292928
0.160125 0.25144 -0.298168
0.175916 0.253072 -0.311934
0.159966 0.262538 -0.31307
0.173527 0.27111 -0.322446
0.154932 0.278932 -0.3169
0.175526 0.292498 -0.331494
0.154521 0.294378 -0.327208
0.14416 0.292894 -0.320052
0.146657 0.304126 -0.334316
0.128385 0.300858 -0.324138
0.130027 0.291846 -0.305852
0.116211 0.293352 -0.312258
0.115838 0.298672 -0.32197
0.103403 0.28976 -0.322304
0.099997 0.304138 -0.326286
0.0905528 0.290294 -0.330598
0.097845 0.276556 -0.314504
0.0893626 0.271506 -0.33891
0.093434 0.262142 -0.318644
0.0935 0.254298 -0.334412
0.0911026 0.242354 -0.32038
0.0905672 0.24944 -0.304676
0.0794084 0.233616 -0.308882
0.076634 0.239982 -0.292906
0.0697778 0.226422 -0.299414
0.0613878 0.231654 -0.27936
0.0639862 0.215892 -0.293814
0.0617342 0.21443 -0.281006
0.0594136 0.221816 -0.267806
0.0629314 0.205388 -0.264582
0.0631594 0.218284 -0.248062
0.0630114 0.194723 -0.250716
0.0683384 0.193656 -0.236034
0.0697244 0.2171 -0.23429
0.0837588 0.199846 -0.22619
0.0664956 0.179143 -0.225136
0.086289 0.180745 -0.215058
0.101184 0.193609 -0.21861
0.0970486 0.211068 -0.223444
0.112652 0.21042 -0.213374
0.115041 0.192383 -0.202862
0.123508 0.210384 -0.197105
0.111276 0.232746 -0.208264
0.124126 0.232212 -0.199971
0.134409 0.225364 -0.190768
0.136562 0.241124 -0.199636
0.148282 0.234752 -0.19511
0.14773 0.248182 -0.207358
0.163681 0.238718 -0.206222
0.166724 0.228388 -0.190086
0.18058 0.238518 -0.202742
0.181353 0.226222 -0.187251
0.194272 0.235384 -0.192036
0.191681 0.245452 -0.216288
0.214186 0.236986 -0.207108
0.202828 0.242434 -0.22633
0.221354 0.229776 -0.22111
0.21346 0.236694 -0.237934
0.225758 0.225512 -0.245034
0.228784 0.239732 -0.252296
0.211848 0.246552 -0.254226
0.225348 0.256988 -0.264346
0.213002 0.256092 -0.26736
0.20067 0.252116 -0.267618
0.21041 0.25831 -0.281324
0.198337 0.25109 -0.286452
0.20662 0.263246 -0.301458
0.192692 0.251244 -0.304156
0.192763 0.264472 -0.317206
0.213928 0.277868 -0.29642
0.20592 0.289658 -0.321372
0.189859 0.279998 -0.323772
0.189918 0.290892 -0.334522
0.197843 0.297326 -0.33929
0.190565 0.29978 -0.35444
0.175394 0.301638 -0.343768
0.171329 0.306418 -0.359682
0.159133 0.307312 -0.349508
0.16239 0.300292 -0.33243
0.152633 0.31962 -0.367738
0.142666 0.316502 -0.355732
0.138219 0.332932 -0.367442
0.129315 0.323368 -0.358234
0.126875 0.31487 -0.341964
0.112381 0.322082 -0.345364
0.113871 0.313526 -0.330628
0.100055 0.31503 -0.337034
0.103938 0.325452 -0.350678
0.0901222 0.326958 -0.357084
0.10443 0.336958 -0.362732
0.0877076 0.345186 -0.367708
0.0767984 0.329932 -0.37018
0.076735 0.318104 -0.35851
0.0766766 0.307212 -0.347762
0.0883436 0.304672 -0.338892
0.0779172 0.287458 -0.34197
0.0660568 0.292604 -0.35171
0.075156 0.272762 -0.355056
0.0601108 0.283874 -0.354812
0.0572656 0.270384 -0.361454
0.0710718 0.258658 -0.362536
0.0855282 0.255736 -0.351136
0.0836022 0.23755 -0.356654
0.0879174 0.2377 -0.340622
0.0724836 0.226356 -0.359378
0.068881 0.21369 -0.329806
0.0796346 0.225542 -0.325618
0.0713942 0.217364 -0.313834
0.0666106 0.20482 -0.322624
0.0688724 0.208124 -0.30825
0.0671504 0.1897 -0.311488
0.0643326 0.198668 -0.295458
0.064753 0.177755 -0.297456
0.0591838 0.182097 -0.282006
0.0620224 0.202816 -0.282342
0.0600586 0.189742 -0.27087
0.053059 0.169018 -0.285958
0.0434284 0.161823 -0.27649
0.049066 0.176633 -0.255788
0.0396218 0.162788 -0.2601
0.042245 0.166621 -0.24343
0.0550838 0.180152 -0.238106
0.0536568 0.165612 -0.23046
0.0442124 0.151767 -0.234774
0.0536272 0.14944 -0.225434
0.0630714 0.163284 -0.22112
0.0669908 0.148609 -0.213922
0.0747258 0.162253 -0.207874
0.074753 0.170255 -0.216198
0.0754314 0.147087 -0.196214
0.0800288 0.160757 -0.191099
0.075492 0.154095 -0.178559
0.0849362 0.167939 -0.174247
0.0934646 0.176076 -0.174354
0.0859408 0.174089 -0.164964
0.105767 0.18284 -0.166515
0.106864 0.177682 -0.188441
0.123564 0.176863 -0.178141
[...]
POINT_DATA 19243
SCALARS ambient_occlusion float 2
LOOKUP_TABLE default
0.643229 0.510624
0.6625 0.510701
0.648438 0.518442
0.633929 0.517917
0.638393 0.502533
0.682292 0.504178
0.662946 0.504481
0.625 0.509624
0.65625 0.516732
0.65625 0.51203
0.680804 0.523723
0.661458 0.526145
0.684375 0.533146
0.705729 0.535995
0.653646 0.528357
0.796875 0.539309
0.692708 0.531506
0.866071 0.543677
0.861979 0.535525
0.710938 0.523117
0.8125 0.528746
0.59375 0.513907
0.6375 0.510401
0.522321 0.494596
0.489583 0.503513
0.384375 0.483793
0.332589 0.465524
0.271875 0.467713
0.386161 0.489042
0.200521 0.457613
0.177083 0.444777
0.083333 0.430108
0.065104 0.419321
0.169643 0.432162
0.0625 0.405355
0.1125 0.411658
0.182292 0.428589
0.291667 0.455057
0.289063 0.450083
0.166667 0.422637
0.119792 0.404666
0.109375 0.397525
0.151786 0.410005
0.28125 0.450144
0.4375 0.474344
0.380208 0.473703
0.525391 0.483716
0.578125 0.488821
0.716146 0.49502
0.696875 0.496991
0.71875 0.50047
0.726563 0.501278
0.739583 0.501997
0.74375 0.503704
0.734375 0.502512
0.658482 0.500787
0.692708 0.499827
0.524554 0.494409
0.646875 0.499274
0.640625 0.504843
0.630208 0.504137
0.459821 0.493822
0.505208 0.502609
0.648438 0.513946
0.502604 0.515075
0.645833 0.52722
0.549479 0.530416
0.629464 0.543587
0.625 0.53691
0.642857 0.550802
0.643229 0.542357
0.7 0.550501
0.817708 0.545548
0.835938 0.554191
0.901042 0.549319
0.817708 0.557709
0.825521 0.553559
0.713542 0.560804
0.747768 0.557522
0.853125 0.55017
0.830729 0.550075
0.8875 0.544281
0.882813 0.540417
0.84375 0.54668
0.809375 0.535571
0.712054 0.538
0.606771 0.522945
0.489583 0.517392
0.585938 0.536227
0.46875 0.514637
0.534375 0.53866
0.505208 0.531683
0.471875 0.509604
0.299107 0.480497
0.421875 0.497148
0.247396 0.461441
0.113839 0.436814
0.136719 0.414574
0.072266 0.400528
0.066406 0.41814
0.065104 0.40855
0.065104 0.388744
0.06875 0.399953
0.071429 0.382616
0.080729 0.36948
0.082589 0.357833
0.084375 0.372416
0.119792 0.391986
0.111979 0.381339
0.078125 0.353956
0.102679 0.374077
0.103125 0.349383
0.080729 0.354162
0.085938 0.336429
0.058036 0.336937
0.069196 0.355583
0.085938 0.380346
0.055804 0.382672
0.153646 0.412538
0.065104 0.360361
0.039063 0.37465
0.058594 0.388746
0.054688 0.38755
0.028646 0.373238
0.03125 0.38023
0.042411 0.37409
0.03125 0.375207
0.0625 0.377572
0.0625 0.37352
0.125 0.363056
0.203125 0.376527
0.190104 0.354027
0.138021 0.344281
0.13125 0.353801
0.117188 0.34018
0.162946 0.325311
0.125 0.326429
0.103125 0.340643
0.088542 0.331053
0.109375 0.316976
0.067708 0.321374
0.083333 0.334777
0.078125 0.324533
0.090625 0.316724
0.083333 0.319295
0.08125 0.327026
0.072917 0.325042
0.049479 0.317953
0.053571 0.326654
0.0625 0.33098
0.0625 0.334302
0.075 0.339097
0.0625 0.344677
0.023438 0.337177
0.041667 0.349773
0.033854 0.344572
0.023438 0.357338
0.026042 0.362547
0.023438 0.367564
0.044271 0.36991
0.08125 0.375659
0.167969 0.391181
0.143229 0.381397
0.118304 0.377587
0.152344 0.394369
0.232143 0.413967
0.278646 0.421192
0.348958 0.440701
0.367188 0.449962
0.309375 0.432678
0.279018 0.403967
0.377232 0.433388
0.328125 0.397855
0.359375 0.42031
0.265625 0.388966
0.226563 0.369036
0.203125 0.360976
0.200893 0.341438
0.205729 0.336414
0.239583 0.319077
0.221354 0.321197
0.2 0.336164
0.246875 0.306377
0.25 0.305121
0.239583 0.291874
0.236979 0.288322
0.200521 0.298505
0.205729 0.311927
0.111979 0.306542
0.194196 0.299283
0.078125 0.307831
0.083333 0.312389
0.085938 0.313057
0.05 0.312548
0.133929 0.311146
0.039063 0.319628
0.117188 0.326289
0.046875 0.331414
0.088542 0.342343
0.256696 0.341907
0.169271 0.360194
0.036458 0.357398
0.247768 0.370012
0.18125 0.379089
0.200521 0.394199
0.196875 0.390595
0.286458 0.353636
0.239583 0.378102
0.294271 0.403378
0.278646 0.412261
0.332589 0.42038
0.212054 0.399036
0.2875 0.420976
0.364583 0.439121
0.361979 0.437094
0.520833 0.457104
0.45 0.455834
0.515625 0.476977
0.417411 0.470996
0.462054 0.501928
0.421875 0.496147
0.395833 0.479717
0.433036 0.513512
0.430804 0.49197
0.390625 0.458703
0.377604 0.468019
0.40625 0.489907
0.425 0.479978
0.440104 0.499958
0.481771 0.48682
0.401786 0.456939
0.453125 0.473815
0.372396 0.439504
0.434375 0.452246
0.361979 0.42756
0.309896 0.409166
0.252604 0.401319
0.268229 0.381115
0.239583 0.376597
0.21875 0.353938
0.244792 0.35483
0.25 0.339764
0.20625 0.333133
0.265625 0.324378
0.241071 0.315066
0.263021 0.306667
0.252604 0.291885
0.263021 0.299601
0.274554 0.278683
0.28125 0.268393
0.296875 0.260146
0.296875 0.265771
0.259375 0.278974
0.333333 0.274893
0.299479 0.25912
0.332589 0.276101
0.304688 0.286807
0.309375 0.29021
0.309896 0.291947
0.226563 0.302393
0.273438 0.309659
0.226563 0.319058
0.307292 0.330111
0.296875 0.320658
0.291667 0.342282
0.304688 0.333904
0.304688 0.355522
0.265625 0.365731
0.229167 0.379301
0.229167 0.391154
0.177083 0.405769
0.273438 0.419794
0.270833 0.435096
0.357143 0.454149
0.328125 0.433717
0.341518 0.465796
0.355469 0.449226
0.359375 0.436821
0.359375 0.463516
0.390625 0.446748
0.434375 0.467911
0.478125 0.457536
0.522321 0.480568
0.361328 0.494621
0.401786 0.514982
0.4875 0.499125
0.416667 0.523558
0.359375 0.539391
0.330357 0.554771
0.432292 0.532975
0.403646 0.561708
0.458333 0.540392
0.4625 0.5167
0.504464 0.57179
0.520833 0.546275
0.591146 0.574041
0.505208 0.552697
0.471354 0.525195
0.408854 0.536185
0.414063 0.511174
0.412946 0.524836
0.453125 0.545222
0.493304 0.546089
0.583333 0.560508
0.705357 0.56385
0.614583 0.555396
0.528125 0.544547
0.517857 0.527074
0.478125 0.508318
0.536458 0.503546
0.55 0.521508
0.533482 0.504588
0.567708 0.53191
0.533854 0.52669
0.494792 0.500258
0.479167 0.475271
0.453125 0.475263
0.410714 0.447058
0.337054 0.458685
0.303571 0.423899
0.30625 0.41907
0.278646 0.397945
0.283854 0.395701
0.276042 0.374283
0.291667 0.371833
0.294271 0.352216
0.283854 0.34994
0.267857 0.329765
0.286458 0.336142
0.3125 0.319847
0.2375 0.333574
0.241071 0.315105
0.256696 0.305551
0.234375 0.298003
0.239583 0.286138
0.236979 0.287485
0.273438 0.270129
0.278125 0.273377
0.299479 0.257323
0.299479 0.251431
0.330729 0.237682
0.290625 0.234637
0.272321 0.24373
0.304688 0.219949
0.234375 0.223006
0.203125 0.204528
0.195313 0.213411
0.191964 0.224996
0.15625 0.203262
0.133929 0.210076
0.21875 0.237907
0.200893 0.232462
0.276042 0.25722
0.28125 0.263371
0.296875 0.279255
0.303571 0.292021
0.328125 0.300246
0.315104 0.313656
0.33125 0.311731
0.325521 0.328633
0.273438 0.324763
0.260417 0.344513
0.333333 0.348014
0.246875 0.361151
0.263021 0.369105
0.268229 0.381766
0.203125 0.39339
0.257813 0.408262
0.205729 0.4202
0.291667 0.434946
0.3125 0.447191
0.416667 0.459717
0.41875 0.468854
0.395089 0.467041
0.453125 0.49195
0.359375 0.495549
0.40625 0.479443
0.335938 0.500343
0.351563 0.482264
0.31875 0.502961
0.299479 0.49372
0.320313 0.516178
0.302083 0.509556
0.322917 0.488296
0.353125 0.505725
0.310268 0.525481
0.347656 0.512863
0.265625 0.530275
0.23125 0.543792
0.244792 0.549797
0.257813 0.563147
0.256696 0.551055
0.271875 0.56677
0.309375 0.55705
0.332589 0.577194
0.377232 0.586406
0.323661 0.581081
0.25625 0.566871
0.25625 0.550613
0.323661 0.527223
0.325521 0.543041
0.286458 0.565539
0.330729 0.561621
0.367188 0.585117
0.348958 0.582123
0.408854 0.604706
0.377604 0.603242
0.34375 0.58251
0.403646 0.604619
0.411458 0.587667
0.414063 0.608383
0.44375 0.595623
0.528646 0.612928
0.536458 0.595748
0.552083 0.625439
0.685268 0.632034
0.645833 0.617567
0.678571 0.60035
0.819196 0.627445
0.838542 0.614599
0.778646 0.59383
0.604167 0.575976
0.645833 0.575232
0.486979 0.55784
0.832589 0.587858
0.746875 0.573209
0.825521 0.57667
0.809896 0.586857
0.856771 0.599688
0.789063 0.593833
0.74375 0.583848
0.816964 0.576104
0.835938 0.569479
0.882813 0.568968
0.869792 0.565556
0.803125 0.563251
0.742188 0.560207
0.742188 0.563194
0.671875 0.559068
0.640625 0.552804
0.616071 0.555615
0.587054 0.540533
0.572917 0.549444
0.505208 0.56018
0.486979 0.559061
0.542411 0.548534
0.4375 0.56222
0.5375 0.559233
0.517578 0.550657
0.525 0.56512
0.546875 0.571024
0.549479 0.563746
0.536458 0.546175
0.494792 0.524345
0.546875 0.526249
0.4375 0.496208
0.473958 0.508873
0.330729 0.480596
0.447917 0.497505
0.299479 0.469737
0.21875 0.45339
0.236979 0.44513
0.239583 0.431369
0.253125 0.436238
0.265625 0.415462
0.240625 0.41422
0.272321 0.393619
0.203125 0.406786
0.242188 0.385939
0.255208 0.368253
0.180804 0.363764
0.229167 0.34707
0.197917 0.341097
0.221354 0.328487
0.213542 0.323113
0.234375 0.313659
0.236607 0.303549
0.25 0.30023
0.25 0.288228
0.234375 0.285558
0.292411 0.270183
0.299479 0.283676
0.339286 0.262002
0.287946 0.243948
0.323661 0.237145
0.29375 0.224328
0.322917 0.221521
0.272321 0.20442
0.296875 0.201039
0.223958 0.185129
0.25 0.184342
0.225 0.190067
0.234375 0.178237
0.205357 0.169085
0.205729 0.168743
0.146875 0.155551
0.129464 0.148631
0.192708 0.165412
0.158482 0.184255
0.151042 0.165967
0.138021 0.185511
0.114583 0.166613
0.096354 0.18605
0.096875 0.168344
0.082589 0.184569
0.1 0.204629
0.117188 0.213107
0.075521 0.194465
0.088542 0.220565
0.196429 0.245772
0.177083 0.246555
0.244792 0.270878
0.273438 0.278082
0.289063 0.297117
0.273438 0.303503
0.278646 0.321541
0.357143 0.320389
0.315104 0.344225
0.21875 0.342889
0.315625 0.36009
0.279018 0.365845
0.371875 0.37803
0.401786 0.37203
0.361979 0.397923
0.337054 0.396596
0.333333 0.421752
0.296875 0.425862
0.283854 0.44486
0.28125 0.451021
0.240625 0.464289
0.334821 0.478149
0.21875 0.484866
0.301339 0.505508
0.210938 0.507726
0.303125 0.519663
0.434375 0.523085
0.471354 0.522067
0.630208 0.534802
0.713542 0.538983
0.609375 0.52674
0.457589 0.502648
0.51875 0.514513
0.544271 0.534962
0.403646 0.516519
0.421875 0.543069
0.341146 0.519683
0.340625 0.539445
0.403125 0.557345
0.337054 0.553222
0.339286 0.524107
0.320313 0.538293
0.430804 0.579017
0.557292 0.571455
0.606771 0.595234
0.518229 0.60236
0.421875 0.594556
0.505208 0.610376
0.426339 0.602126
0.570313 0.618626
0.497396 0.617951
0.475 0.607156
0.567708 0.621428
0.489583 0.605913
0.619141 0.630065
0.419271 0.607173
0.565104 0.628013
0.4375 0.609776
0.296875 0.58608
0.628125 0.630167
0.515625 0.624692
0.779018 0.642518
0.588542 0.636697
0.484375 0.621451
0.557292 0.634484
0.4375 0.622233
0.509375 0.635248
0.54375 0.631712
0.494792 0.621677
0.658854 0.634841
0.638393 0.64187
0.705729 0.645278
0.661458 0.639594
0.773438 0.649701
0.768229 0.646438
0.895833 0.654849
0.877604 0.65385
0.817708 0.644317
0.828125 0.652071
0.848958 0.643491
0.825 0.633638
0.848958 0.654352
0.8125 0.644581
0.815104 0.656494
0.783854 0.647675
0.828125 0.633245
0.752604 0.637762
0.807292 0.622936
0.763021 0.627658
0.856771 0.614028
0.856771 0.60609
0.911458 0.617841
0.901042 0.605917
0.960938 0.608055
0.875 0.598238
0.854167 0.595404
0.785714 0.585024
0.6875 0.578397
0.765625 0.567027
0.770833 0.574829
0.809375 0.565384
0.791667 0.568778
0.832031 0.559321
0.828125 0.565409
0.752604 0.562722
0.731771 0.56427
0.871875 0.565887
0.606771 0.564093
0.625 0.561976
0.497768 0.56361
0.458333 0.566451
0.4375 0.568784
0.43125 0.56607
0.453125 0.570512
0.442708 0.565982
0.445313 0.571741
0.393229 0.56711
0.398438 0.573273
0.378125 0.569474
0.432292 0.574917
0.477679 0.569258
0.533854 0.578144
0.549479 0.575081
0.544271 0.583804
0.549479 0.582714
0.570313 0.59079
0.609375 0.591728
0.606771 0.583454
0.6875 0.593453
0.726563 0.585377
0.628125 0.575865
0.679688 0.575203
0.817708 0.586718
0.771875 0.575687
0.588542 0.56301
0.752604 0.567806
0.630208 0.548695
0.700521 0.555174
0.630208 0.533124
0.65625 0.539585
0.55625 0.519711
0.555804 0.519215
0.651042 0.546973
0.559896 0.533162
0.50625 0.509861
0.401786 0.487099
0.529018 0.489849
0.31875 0.468228
0.263393 0.455541
0.265625 0.446945
0.209375 0.43624
0.2125 0.436521
0.197917 0.421266
0.223958 0.425594
0.189732 0.42198
0.195313 0.402082
0.154018 0.395004
0.19375 0.383347
0.195313 0.371617
0.229911 0.415446
0.195313 0.395073
0.15625 0.377446
0.263021 0.38224
0.243304 0.362074
0.215625 0.360388
0.223214 0.340655
0.195313 0.351709
0.19375 0.334838
0.197917 0.31942
0.272321 0.317203
0.252604 0.29922
0.291667 0.292413
0.303125 0.28097
0.274554 0.268987
0.303125 0.304649
0.301339 0.285033
0.299479 0.263043
0.291667 0.249896
0.296875 0.251211
0.275 0.239195
0.296875 0.233724
0.320313 0.225029
0.364583 0.217693
0.309896 0.207493
0.296875 0.216126
0.25 0.199812
0.212054 0.187123
0.21875 0.185087
0.160714 0.166875
0.128125 0.17043
0.067708 0.155909
0.05625 0.150057
0.130208 0.152493
0.028646 0.141253
0.010417 0.146192
0.018229 0.13296
0.033854 0.128867
0.048828 0.135029
0.015625 0.124035
0.039063 0.120828
0.054688 0.124564
0.065104 0.1404
0.084821 0.128042
0.073661 0.111864
0.085938 0.113444
0.109375 0.12415
0.09375 0.135738
0.136161 0.131091
0.130208 0.148731
0.140625 0.148068
0.104911 0.129984
0.111607 0.148859
0.085938 0.131977
0.09375 0.142297
0.060268 0.158424
0.039063 0.143235
0.05 0.154548
0.054688 0.171164
0.035714 0.15903
0.036458 0.179591
0.025391 0.167984
0.03125 0.187116
0.03125 0.201492
0.022321 0.205154
0.072917 0.225705
0.080729 0.2334
0.182292 0.250546
0.263021 0.260688
0.309375 0.270725
0.265625 0.269406
0.385417 0.288989
0.309896 0.291963
0.434375 0.308177
0.510417 0.310043
0.427083 0.33174
0.486979 0.33707
0.439732 0.36555
0.369792 0.351419
0.425 0.376829
0.372396 0.398095
0.393229 0.398435
0.367188 0.424404
0.361979 0.422772
0.310268 0.450993
0.333333 0.450465
0.301339 0.476305
0.273438 0.476036
0.2625 0.462801
0.307292 0.444274
0.236979 0.46334
0.216146 0.479514
0.21875 0.494202
0.2 0.495634
0.221354 0.511316
0.223958 0.509878
0.450521 0.530535
0.375 0.528525
0.662946 0.550881
0.674479 0.544921
0.528646 0.532585
0.75625 0.542998
0.911458 0.553388
0.856771 0.547773
0.919271 0.560156
0.856771 0.554495
0.880208 0.568679
0.821875 0.562716
0.760417 0.546807
0.645089 0.561699
0.830357 0.580246
0.747768 0.590805
0.783854 0.60022
0.78125 0.612305
0.796875 0.61123
0.875 0.625689
0.895833 0.625858
0.682292 0.613964
0.768229 0.627338
0.598958 0.618376
0.783854 0.629446
0.669271 0.623378
0.80625 0.631291
0.765625 0.628651
0.901042 0.635455
0.770833 0.633323
0.625 0.626139
0.645833 0.629242
0.786458 0.637868
0.671875 0.63515
0.851563 0.643837
0.776042 0.64457
0.945313 0.650599
0.914063 0.654239
0.804688 0.649099
0.830729 0.659261
0.815104 0.65732
0.789063 0.64454
0.888021 0.655382
0.807292 0.643177
0.927083 0.654482
0.9375 0.663282
0.959821 0.662778
0.893229 0.655192
0.890625 0.661316
0.888021 0.656779
0.78125 0.648783
0.84375 0.652614
0.635417 0.644832
0.75 0.649459
0.604167 0.643151
0.75 0.649287
0.875 0.654045
0.835938 0.653907
0.740625 0.649241
0.822917 0.65245
0.942708 0.656951
0.875 0.65531
0.963542 0.658833
0.997396 0.659525
0.96875 0.661287
0.948661 0.660356
0.924479 0.662979
0.945313 0.664606
0.921875 0.660335
0.916667 0.667028
0.879464 0.664074
0.853125 0.669885
0.848958 0.669716
0.834375 0.664269
0.834821 0.667656
0.8125 0.658693
0.763021 0.673416
0.757813 0.672691
0.791667 0.667648
0.783854 0.660352
0.723958 0.650206
0.664063 0.651446
0.666667 0.64006
0.743304 0.63956
0.799479 0.628822
0.830729 0.624928
0.925 0.618366
0.877232 0.608731
0.770833 0.618392
0.739583 0.60104
0.79375 0.631435
0.73125 0.628382
0.631696 0.612042
0.662946 0.634391
0.518229 0.617633
0.555804 0.592306
0.632813 0.588476
0.5625 0.568671
0.588542 0.569743
0.6875 0.584909
0.619792 0.57267
0.554688 0.553286
0.518229 0.548956
0.539063 0.54492
0.497396 0.525081
0.505208 0.519058
0.606771 0.541441
0.5625 0.518063
0.424479 0.48937
0.425 0.489567
0.28125 0.453906
0.350446 0.475336
0.21875 0.439571
0.503906 0.513941
0.5125 0.500575
0.455729 0.484097
0.640625 0.509215
0.585938 0.498261
0.710938 0.520241
0.632813 0.51121
0.515625 0.492985
0.671875 0.5068
0.698661 0.50033
0.765625 0.511773
0.745536 0.507438
0.765625 0.516967
0.765625 0.513055
0.75 0.506334
0.799479 0.508682
0.771875 0.50383
0.755208 0.502986
0.698661 0.517657
0.726563 0.509429
0.598958 0.501551
0.5625 0.496223
0.414063 0.492707
0.302083 0.48812
0.265625 0.482833
0.145833 0.480036
0.229167 0.485658
0.153646 0.477709
0.203125 0.483353
0.122396 0.475743
0.114583 0.480583
0.273438 0.490551
0.184896 0.486013
0.34375 0.500399
0.236979 0.490401
0.335938 0.504211
0.419271 0.517403
0.257813 0.4932
0.338542 0.506638
0.270833 0.49504
0.4375 0.5067
0.470703 0.52365
0.382813 0.520367
0.504464 0.535841
0.455729 0.536637
0.588542 0.549033
0.631696 0.553929
0.5875 0.543994
0.617188 0.556044
0.665625 0.558976
0.640625 0.565874
0.613839 0.567068
0.622396 0.573993
0.645833 0.576469
0.56875 0.573728
0.596354 0.567557
0.648438 0.576199
0.642857 0.571435
0.682292 0.559052
0.71875 0.563372
0.674479 0.57231
0.752604 0.566526
0.729167 0.558202
0.765625 0.561891
0.716146 0.568243
0.742188 0.564301
0.609375 0.568781
0.591146 0.566101
0.475446 0.570679
0.5625 0.572725
0.473958 0.575939
0.460938 0.573577
0.458333 0.578393
0.450521 0.575444
0.486979 0.580091
0.419271 0.576974
0.507813 0.58169
0.414063 0.578551
0.528646 0.583506
0.440625 0.580156
0.5625 0.585166
0.606771 0.588581
0.63125 0.590878
0.614583 0.590566
0.591518 0.5959
0.572917 0.596589
0.559896 0.600542
0.559896 0.602558
0.589286 0.599052
0.636719 0.604465
0.731771 0.606476
0.729167 0.600465
0.768229 0.609299
0.7875 0.602222
0.823661 0.610399
0.786458 0.596761
0.828125 0.601326
0.821875 0.61673
0.794271 0.614323
0.71875 0.597667
0.682292 0.610227
0.653125 0.594976
0.635417 0.603179
0.617188 0.58361
0.703125 0.621927
0.705729 0.614586
0.613839 0.591069
0.618304 0.604198
0.59375 0.584935
0.55 0.574452
0.59375 0.569517
0.5625 0.556623
0.536458 0.568273
0.549479 0.545646
0.583333 0.561305
0.635417 0.533417
0.554688 0.519591
0.638021 0.504792
0.664063 0.518246
0.630208 0.489987
0.583333 0.477171
0.619792 0.463735
0.494792 0.452666
0.401042 0.462134
0.307292 0.438473
0.442708 0.432622
0.622396 0.442496
0.54375 0.428049
0.396875 0.419578
0.533482 0.415843
0.333333 0.406895
0.460938 0.401845
0.3125 0.394913
0.372396 0.389712
0.510417 0.397494
0.40625 0.387458
0.3125 0.375784
0.390625 0.381625
0.35625 0.370367
0.278646 0.358821
0.274554 0.360192
0.3 0.344969
0.291667 0.341162
0.301339 0.32493
0.294271 0.34109
0.309896 0.322364
0.325521 0.304922
0.317708 0.305051
0.325521 0.288938
0.270833 0.29035
0.309896 0.275722
0.30625 0.273815
0.318359 0.257268
0.31875 0.266717
0.321875 0.256531
0.320313 0.243175
0.304688 0.236025
0.322917 0.244367
0.333333 0.227183
0.328125 0.21878
0.340625 0.213348
0.322917 0.203419
0.303571 0.200347
0.265625 0.193199
0.165179 0.181266
0.220982 0.188349
0.098958 0.168604
0.0625 0.162009
0.036458 0.150845
0.070313 0.156196
0.066964 0.137774
0.015625 0.135536
0.044643 0.121621
0.040625 0.12524
0.049479 0.115203
0.036458 0.122173
0.041667 0.113023
0.033854 0.119364
0.026042 0.112271
0.028125 0.117507
0.033854 0.112498
0.026042 0.106176
0.034375 0.1069
0.028646 0.11313
0.052083 0.104038
0.044271 0.100241
0.064732 0.0936782
0.090625 0.100402
0.111979 0.0923298
0.101563 0.101845
0.117188 0.0926085
0.109375 0.102635
0.09375 0.0933819
0.080729 0.102517
0.100446 0.114397
0.090625 0.110267
0.090625 0.119581
0.091146 0.114406
0.060268 0.102647
0.078125 0.107494
0.09375 0.119295
0.069196 0.11213
0.084375 0.122832
0.052083 0.121685
0.057292 0.131773
0.028646 0.13198
0.033854 0.122349
0.026042 0.132482
0.044643 0.143893
0.023438 0.141742
0.023438 0.148507
0.015625 0.151867
0.018229 0.143853
0.0125 0.153887
0.015625 0.148938
0.01875 0.159995
0.006696 0.159377
0.013021 0.172982
0.005208 0.17791
0.018229 0.191948
0.028125 0.184424
0.007813 0.198681
0.033854 0.216107
0.008929 0.225331
0.114583 0.245392
0.148438 0.259195
0.028646 0.241535
0.1875 0.270255
0.379464 0.294526
0.359375 0.280448
0.440625 0.309333
0.513021 0.310127
0.442708 0.286423
0.484375 0.339282
0.48125 0.323532
0.460938 0.322896
0.497768 0.352433
0.479911 0.349515
0.419271 0.378466
0.441406 0.377163
0.470982 0.37637
0.466518 0.401114
0.484375 0.406599
0.494792 0.430787
0.471875 0.427741
0.471354 0.453258
0.453125 0.442761
0.473214 0.409517
0.429688 0.387783
0.46875 0.367237
0.453125 0.398024
0.421875 0.432024
0.359375 0.426153
0.382813 0.453734
0.473958 0.461079